 Entering Gaussian System, Link 0=g16
 Input=c6h6.com
 Output=c6h6.log
 Initial command:
 /usr/local/packages/gaussian/g16/l1.exe "/scratch/Gau-35149.inp" -scrdir="/scratch/"
 Entering Link 1 = /usr/local/packages/gaussian/g16/l1.exe PID=     35150.
  
 Copyright (c) 1988,1990,1992,1993,1995,1998,2003,2009,2016,
            Gaussian, Inc.  All Rights Reserved.
  
 This is part of the Gaussian(R) 16 program.  It is based on
 the Gaussian(R) 09 system (copyright 2009, Gaussian, Inc.),
 the Gaussian(R) 03 system (copyright 2003, Gaussian, Inc.),
 the Gaussian(R) 98 system (copyright 1998, Gaussian, Inc.),
 the Gaussian(R) 94 system (copyright 1995, Gaussian, Inc.),
 the Gaussian 92(TM) system (copyright 1992, Gaussian, Inc.),
 the Gaussian 90(TM) system (copyright 1990, Gaussian, Inc.),
 the Gaussian 88(TM) system (copyright 1988, Gaussian, Inc.),
 the Gaussian 86(TM) system (copyright 1986, Carnegie Mellon
 University), and the Gaussian 82(TM) system (copyright 1983,
 Carnegie Mellon University). Gaussian is a federally registered
 trademark of Gaussian, Inc.
  
 This software contains proprietary and confidential information,
 including trade secrets, belonging to Gaussian, Inc.
  
 This software is provided under written license and may be
 used, copied, transmitted, or stored only in accord with that
 written license.
  
 The following legend is applicable only to US Government
 contracts under FAR:
  
                    RESTRICTED RIGHTS LEGEND
  
 Use, reproduction and disclosure by the US Government is
 subject to restrictions as set forth in subparagraphs (a)
 and (c) of the Commercial Computer Software - Restricted
 Rights clause in FAR 52.227-19.
  
 Gaussian, Inc.
 340 Quinnipiac St., Bldg. 40, Wallingford CT 06492
  
  
 ---------------------------------------------------------------
 Warning -- This program may not be used in any manner that
 competes with the business of Gaussian, Inc. or will provide
 assistance to any competitor of Gaussian, Inc.  The licensee
 of this program is prohibited from giving any competitor of
 Gaussian, Inc. access to this program.  By using this program,
 the user acknowledges that Gaussian, Inc. is engaged in the
 business of creating and licensing software in the field of
 computational chemistry and represents and warrants to the
 licensee that it is not a competitor of Gaussian, Inc. and that
 it will not use this program in any manner prohibited above.
 ---------------------------------------------------------------
  

 Cite this work as:
 Gaussian 16, Revision A.03,
 M. J. Frisch, G. W. Trucks, H. B. Schlegel, G. E. Scuseria, 
 M. A. Robb, J. R. Cheeseman, G. Scalmani, V. Barone, 
 G. A. Petersson, H. Nakatsuji, X. Li, M. Caricato, A. V. Marenich, 
 J. Bloino, B. G. Janesko, R. Gomperts, B. Mennucci, H. P. Hratchian, 
 J. V. Ortiz, A. F. Izmaylov, J. L. Sonnenberg, D. Williams-Young, 
 F. Ding, F. Lipparini, F. Egidi, J. Goings, B. Peng, A. Petrone, 
 T. Henderson, D. Ranasinghe, V. G. Zakrzewski, J. Gao, N. Rega, 
 G. Zheng, W. Liang, M. Hada, M. Ehara, K. Toyota, R. Fukuda, 
 J. Hasegawa, M. Ishida, T. Nakajima, Y. Honda, O. Kitao, H. Nakai, 
 T. Vreven, K. Throssell, J. A. Montgomery, Jr., J. E. Peralta, 
 F. Ogliaro, M. J. Bearpark, J. J. Heyd, E. N. Brothers, K. N. Kudin, 
 V. N. Staroverov, T. A. Keith, R. Kobayashi, J. Normand, 
 K. Raghavachari, A. P. Rendell, J. C. Burant, S. S. Iyengar, 
 J. Tomasi, M. Cossi, J. M. Millam, M. Klene, C. Adamo, R. Cammi, 
 J. W. Ochterski, R. L. Martin, K. Morokuma, O. Farkas, 
 J. B. Foresman, and D. J. Fox, Gaussian, Inc., Wallingford CT, 2016.
 
 ******************************************
 Gaussian 16:  ES64L-G16RevA.03 25-Dec-2016
                29-Sep-2020 
 ******************************************
 %Chk=C6H6
 ---------------------------------
 #P BLYP/6-311+G(d,p) Pop=full Opt
 ---------------------------------
 1/18=20,19=15,26=3,38=1/1,3;
 2/9=110,12=2,17=6,18=5,40=1/2;
 3/5=4,6=6,7=111,11=2,25=1,30=1,71=1,74=402/1,2,3;
 4//1;
 5/5=2,38=5/2;
 6/7=3,28=1/1;
 7//1,2,3,16;
 1/18=20,19=15,26=3/3(2);
 2/9=110/2;
 99//99;
 2/9=110/2;
 3/5=4,6=6,7=111,11=2,25=1,30=1,71=1,74=402/1,2,3;
 4/5=5,16=3,69=1/1;
 5/5=2,38=5/2;
 7//1,2,3,16;
 1/18=20,19=15,26=3/3(-5);
 2/9=110/2;
 6/7=3,19=2,28=1/1;
 99/9=1/99;
 Leave Link    1 at Tue Sep 29 08:52:53 2020, MaxMem=           0 cpu:               0.1 elap:               0.1
 (Enter /usr/local/packages/gaussian/g16/l101.exe)
 ------------------------------------
 C6H6 single-point energy calculation
 ------------------------------------
 Symbolic Z-matrix:
 Charge =  0 Multiplicity = 1
 C                    -3.3654    1.9794    0. 
 C                    -1.9787    1.8339    0. 
 C                    -4.1849    0.8513    0. 
 C                    -3.6173   -0.4218    0. 
 C                    -2.2307   -0.5673    0. 
 C                    -1.4113    0.5608    0. 
 H                    -3.8096    2.9717    0. 
 H                    -5.2662    0.9647    0. 
 H                    -4.2564   -1.3015    0. 
 H                    -1.7882   -1.5602    0. 
 H                    -0.3299    0.4476    0. 
 H                    -1.338     2.7124    0. 
 
 ITRead=  0  0  0  0  0  0  0  0  0  0  0  0
 MicOpt= -1 -1 -1 -1 -1 -1 -1 -1 -1 -1 -1 -1
 NAtoms=     12 NQM=       12 NQMF=       0 NMMI=      0 NMMIF=      0
                NMic=       0 NMicF=      0.
                    Isotopes and Nuclear Properties:
 (Nuclear quadrupole moments (NQMom) in fm**2, nuclear magnetic moments (NMagM)
  in nuclear magnetons)

  Atom         1           2           3           4           5           6           7           8           9          10
 IAtWgt=          12          12          12          12          12          12           1           1           1           1
 AtmWgt=  12.0000000  12.0000000  12.0000000  12.0000000  12.0000000  12.0000000   1.0078250   1.0078250   1.0078250   1.0078250
 NucSpn=           0           0           0           0           0           0           1           1           1           1
 AtZEff=  -0.0000000  -0.0000000  -0.0000000  -0.0000000  -0.0000000  -0.0000000  -0.0000000  -0.0000000  -0.0000000  -0.0000000
 NQMom=    0.0000000   0.0000000   0.0000000   0.0000000   0.0000000   0.0000000   0.0000000   0.0000000   0.0000000   0.0000000
 NMagM=    0.0000000   0.0000000   0.0000000   0.0000000   0.0000000   0.0000000   2.7928460   2.7928460   2.7928460   2.7928460
 AtZNuc=   6.0000000   6.0000000   6.0000000   6.0000000   6.0000000   6.0000000   1.0000000   1.0000000   1.0000000   1.0000000

  Atom        11          12
 IAtWgt=           1           1
 AtmWgt=   1.0078250   1.0078250
 NucSpn=           1           1
 AtZEff=  -0.0000000  -0.0000000
 NQMom=    0.0000000   0.0000000
 NMagM=    2.7928460   2.7928460
 AtZNuc=   1.0000000   1.0000000
 Leave Link  101 at Tue Sep 29 08:52:54 2020, MaxMem=   104857600 cpu:               0.3 elap:               0.4
 (Enter /usr/local/packages/gaussian/g16/l103.exe)

 GradGradGradGradGradGradGradGradGradGradGradGradGradGradGradGradGradGrad
 Berny optimization.
 Initialization pass.
                           ----------------------------
                           !    Initial Parameters    !
                           ! (Angstroms and Degrees)  !
 --------------------------                            --------------------------
 ! Name  Definition              Value          Derivative Info.                !
 --------------------------------------------------------------------------------
 ! R1    R(1,2)                  1.3943         estimate D2E/DX2                !
 ! R2    R(1,3)                  1.3943         estimate D2E/DX2                !
 ! R3    R(1,7)                  1.0872         estimate D2E/DX2                !
 ! R4    R(2,6)                  1.3938         estimate D2E/DX2                !
 ! R5    R(2,12)                 1.0873         estimate D2E/DX2                !
 ! R6    R(3,4)                  1.3939         estimate D2E/DX2                !
 ! R7    R(3,8)                  1.0872         estimate D2E/DX2                !
 ! R8    R(4,5)                  1.3942         estimate D2E/DX2                !
 ! R9    R(4,9)                  1.0873         estimate D2E/DX2                !
 ! R10   R(5,6)                  1.3943         estimate D2E/DX2                !
 ! R11   R(5,10)                 1.087          estimate D2E/DX2                !
 ! R12   R(6,11)                 1.0873         estimate D2E/DX2                !
 ! A1    A(2,1,3)              120.0064         estimate D2E/DX2                !
 ! A2    A(2,1,7)              120.1054         estimate D2E/DX2                !
 ! A3    A(3,1,7)              119.8882         estimate D2E/DX2                !
 ! A4    A(1,2,6)              120.0116         estimate D2E/DX2                !
 ! A5    A(1,2,12)             120.1138         estimate D2E/DX2                !
 ! A6    A(6,2,12)             119.8745         estimate D2E/DX2                !
 ! A7    A(1,3,4)              119.9745         estimate D2E/DX2                !
 ! A8    A(1,3,8)              120.0093         estimate D2E/DX2                !
 ! A9    A(4,3,8)              120.0162         estimate D2E/DX2                !
 ! A10   A(3,4,5)              120.0196         estimate D2E/DX2                !
 ! A11   A(3,4,9)              119.9724         estimate D2E/DX2                !
 ! A12   A(5,4,9)              120.008          estimate D2E/DX2                !
 ! A13   A(4,5,6)              120.0026         estimate D2E/DX2                !
 ! A14   A(4,5,10)             120.0111         estimate D2E/DX2                !
 ! A15   A(6,5,10)             119.9862         estimate D2E/DX2                !
 ! A16   A(2,6,5)              119.9853         estimate D2E/DX2                !
 ! A17   A(2,6,11)             119.9977         estimate D2E/DX2                !
 ! A18   A(5,6,11)             120.017          estimate D2E/DX2                !
 ! D1    D(3,1,2,6)              0.0            estimate D2E/DX2                !
 ! D2    D(3,1,2,12)           180.0            estimate D2E/DX2                !
 ! D3    D(7,1,2,6)            180.0            estimate D2E/DX2                !
 ! D4    D(7,1,2,12)             0.0            estimate D2E/DX2                !
 ! D5    D(2,1,3,4)              0.0            estimate D2E/DX2                !
 ! D6    D(2,1,3,8)            180.0            estimate D2E/DX2                !
 ! D7    D(7,1,3,4)            180.0            estimate D2E/DX2                !
 ! D8    D(7,1,3,8)              0.0            estimate D2E/DX2                !
 ! D9    D(1,2,6,5)              0.0            estimate D2E/DX2                !
 ! D10   D(1,2,6,11)           180.0            estimate D2E/DX2                !
 ! D11   D(12,2,6,5)           180.0            estimate D2E/DX2                !
 ! D12   D(12,2,6,11)            0.0            estimate D2E/DX2                !
 ! D13   D(1,3,4,5)              0.0            estimate D2E/DX2                !
 ! D14   D(1,3,4,9)            180.0            estimate D2E/DX2                !
 ! D15   D(8,3,4,5)            180.0            estimate D2E/DX2                !
 ! D16   D(8,3,4,9)              0.0            estimate D2E/DX2                !
 ! D17   D(3,4,5,6)              0.0            estimate D2E/DX2                !
 ! D18   D(3,4,5,10)           180.0            estimate D2E/DX2                !
 ! D19   D(9,4,5,6)            180.0            estimate D2E/DX2                !
 ! D20   D(9,4,5,10)             0.0            estimate D2E/DX2                !
 ! D21   D(4,5,6,2)              0.0            estimate D2E/DX2                !
 ! D22   D(4,5,6,11)           180.0            estimate D2E/DX2                !
 ! D23   D(10,5,6,2)           180.0            estimate D2E/DX2                !
 ! D24   D(10,5,6,11)            0.0            estimate D2E/DX2                !
 --------------------------------------------------------------------------------
 Trust Radius=3.00D-01 FncErr=1.00D-07 GrdErr=1.00D-06 EigMax=2.50D+02 EigMin=1.00D-04
 Number of steps in this run=     64 maximum allowed number of steps=    100.
 GradGradGradGradGradGradGradGradGradGradGradGradGradGradGradGradGradGrad

 Leave Link  103 at Tue Sep 29 08:52:54 2020, MaxMem=   104857600 cpu:               0.0 elap:               0.0
 (Enter /usr/local/packages/gaussian/g16/l202.exe)
                          Input orientation:                          
 ---------------------------------------------------------------------
 Center     Atomic      Atomic             Coordinates (Angstroms)
 Number     Number       Type             X           Y           Z
 ---------------------------------------------------------------------
      1          6           0       -3.365400    1.979400    0.000000
      2          6           0       -1.978700    1.833900    0.000000
      3          6           0       -4.184900    0.851300    0.000000
      4          6           0       -3.617300   -0.421800    0.000000
      5          6           0       -2.230700   -0.567300    0.000000
      6          6           0       -1.411300    0.560800    0.000000
      7          1           0       -3.809600    2.971700    0.000000
      8          1           0       -5.266200    0.964700    0.000000
      9          1           0       -4.256400   -1.301500    0.000000
     10          1           0       -1.788200   -1.560200    0.000000
     11          1           0       -0.329900    0.447600    0.000000
     12          1           0       -1.338000    2.712400    0.000000
 ---------------------------------------------------------------------
                    Distance matrix (angstroms):
                    1          2          3          4          5
     1  C    0.000000
     2  C    1.394312   0.000000
     3  C    1.394342   2.415123   0.000000
     4  C    2.414377   2.788045   1.393899   0.000000
     5  C    2.788050   2.414387   2.414813   1.394213   0.000000
     6  C    2.414732   1.393817   2.788772   2.414941   1.394283
     7  H    1.087186   2.155640   2.153357   3.398944   3.875235
     8  H    2.154683   3.400465   1.087230   2.154357   3.400189
     9  H    3.399733   3.875390   2.153987   1.087346   2.154648
    10  H    3.875091   3.399442   3.399927   2.154428   1.087040
    11  H    3.400099   2.154152   3.876080   3.400420   2.154777
    12  H    2.155839   1.087317   3.401255   3.875360   3.399021
                    6          7          8          9         10
     6  C    0.000000
     7  H    3.400630   0.000000
     8  H    3.876002   2.479865   0.000000
     9  H    3.400405   4.296495   2.480999   0.000000
    10  H    2.154227   4.962275   4.297860   2.481721   0.000000
    11  H    1.087309   4.298766   4.963310   4.298459   2.481512
    12  H    2.152848   2.485165   4.299443   4.962706   4.296253
                   11         12
    11  H    0.000000
    12  H    2.479029   0.000000
 Stoichiometry    C6H6
 Framework group  CS[SG(C6H6)]
 Deg. of freedom    21
 Full point group                 CS      NOp   2
 Largest Abelian subgroup         CS      NOp   2
 Largest concise Abelian subgroup C1      NOp   1
                         Standard orientation:                         
 ---------------------------------------------------------------------
 Center     Atomic      Atomic             Coordinates (Angstroms)
 Number     Number       Type             X           Y           Z
 ---------------------------------------------------------------------
      1          6           0        1.207413   -0.696820    0.000000
      2          6           0       -0.000036   -1.394082    0.000000
      3          6           0        1.207445    0.697522    0.000000
      4          6           0       -0.000000    1.393962   -0.000000
      5          6           0       -1.207368    0.696758   -0.000000
      6          6           0       -1.207320   -0.697525   -0.000000
      7          1           0        2.149989   -1.238597    0.000000
      8          1           0        2.148939    1.241268    0.000000
      9          1           0        0.000065    2.481308   -0.000000
     10          1           0       -2.148921    1.240020   -0.000000
     11          1           0       -2.148776   -1.241491   -0.000000
     12          1           0       -0.002101   -2.481398    0.000000
 ---------------------------------------------------------------------
 Rotational constants (GHZ):           5.7071379           5.7026025           2.8524346
 Leave Link  202 at Tue Sep 29 08:52:55 2020, MaxMem=   104857600 cpu:               0.0 elap:               0.1
 (Enter /usr/local/packages/gaussian/g16/l301.exe)
 Standard basis: 6-311+G(d,p) (5D, 7F)
 Ernie: Thresh=  0.10000D-02 Tol=  0.10000D-05 Strict=F.
 There are   132 symmetry adapted cartesian basis functions of A'  symmetry.
 There are    42 symmetry adapted cartesian basis functions of A"  symmetry.
 There are   126 symmetry adapted basis functions of A'  symmetry.
 There are    42 symmetry adapted basis functions of A"  symmetry.
   168 basis functions,   264 primitive gaussians,   174 cartesian basis functions
    21 alpha electrons       21 beta electrons
       nuclear repulsion energy       203.4862232959 Hartrees.
 IExCor=  402 DFT=T Ex=B Corr=LYP ExCW=0 ScaHFX=  0.000000
 ScaDFX=  1.000000  1.000000  1.000000  1.000000 ScalE2=  1.000000  1.000000
 IRadAn=      5 IRanWt=     -1 IRanGd=            0 ICorTp=0 IEmpDi=  4
 NAtoms=   12 NActive=   12 NUniq=   12 SFac= 1.00D+00 NAtFMM=   60 NAOKFM=F Big=F
 Integral buffers will be    131072 words long.
 Raffenetti 2 integral format.
 Two-electron integral symmetry is turned on.
 Leave Link  301 at Tue Sep 29 08:52:55 2020, MaxMem=   104857600 cpu:               0.1 elap:               0.1
 (Enter /usr/local/packages/gaussian/g16/l302.exe)
 NPDir=0 NMtPBC=     1 NCelOv=     1 NCel=       1 NClECP=     1 NCelD=      1
         NCelK=      1 NCelE2=     1 NClLst=     1 CellRange=     0.0.
 One-electron integrals computed using PRISM.
 One-electron integral symmetry used in STVInt
 NBasis=   168 RedAO= T EigKep=  4.13D-06  NBF=   126    42
 NBsUse=   168 1.00D-06 EigRej= -1.00D+00 NBFU=   126    42
 Precomputing XC quadrature grid using
 IXCGrd= 4 IRadAn=           5 IRanWt=          -1 IRanGd=           0 AccXCQ= 0.00D+00.
 Generated NRdTot=       0 NPtTot=           0 NUsed=           0 NTot=          32
 NSgBfM=   174   174   174   174   174 MxSgAt=    12 MxSgA2=    12.
 Leave Link  302 at Tue Sep 29 08:52:56 2020, MaxMem=   104857600 cpu:               0.4 elap:               0.4
 (Enter /usr/local/packages/gaussian/g16/l303.exe)
 DipDrv:  MaxL=1.
 Leave Link  303 at Tue Sep 29 08:52:56 2020, MaxMem=   104857600 cpu:               0.1 elap:               0.1
 (Enter /usr/local/packages/gaussian/g16/l401.exe)
 ExpMin= 4.38D-02 ExpMax= 4.56D+03 ExpMxC= 6.82D+02 IAcc=3 IRadAn=         5 AccDes= 0.00D+00
 Harris functional with IExCor=  402 and IRadAn=       5 diagonalized for initial guess.
 HarFok:  IExCor=  402 AccDes= 0.00D+00 IRadAn=         5 IDoV= 1 UseB2=F ITyADJ=14
 ICtDFT=  3500011 ScaDFX=  1.000000  1.000000  1.000000  1.000000
 FoFCou: FMM=F IPFlag=           0 FMFlag=      100000 FMFlg1=           0
         NFxFlg=           0 DoJE=T BraDBF=F KetDBF=T FulRan=T
         wScrn=  0.000000 ICntrl=       500 IOpCl=  0 I1Cent=   200000004 NGrid=           0
         NMat0=    1 NMatS0=      1 NMatT0=    0 NMatD0=    1 NMtDS0=    0 NMtDT0=    0
 Petite list used in FoFCou.
 Harris En= -232.348489993800    
 JPrj=0 DoOrth=F DoCkMO=F.
 Initial guess orbital symmetries:
       Occupied  (A') (A') (A') (A') (A') (A') (A') (A') (A') (A')
                 (A') (A') (A') (A') (A') (A') (A") (A') (A') (A")
                 (A")
       Virtual   (A") (A") (A') (A") (A') (A') (A') (A') (A') (A")
                 (A') (A") (A") (A') (A') (A') (A') (A') (A') (A")
                 (A") (A') (A') (A') (A') (A") (A') (A') (A') (A')
                 (A') (A') (A') (A') (A') (A') (A') (A') (A') (A')
                 (A') (A') (A') (A") (A') (A') (A') (A") (A") (A")
                 (A") (A') (A') (A") (A') (A') (A') (A') (A') (A')
                 (A') (A') (A') (A') (A') (A') (A") (A") (A') (A')
                 (A") (A") (A") (A") (A') (A') (A') (A') (A') (A')
                 (A") (A") (A") (A') (A') (A') (A') (A") (A") (A")
                 (A') (A') (A') (A") (A") (A') (A') (A') (A') (A')
                 (A') (A") (A") (A") (A') (A") (A') (A') (A') (A')
                 (A") (A') (A') (A') (A') (A") (A") (A') (A') (A')
                 (A') (A') (A") (A") (A') (A') (A') (A') (A") (A')
                 (A') (A') (A') (A') (A') (A') (A') (A') (A') (A')
                 (A') (A') (A') (A') (A') (A') (A')
 The electronic state of the initial guess is 1-A'.
 Leave Link  401 at Tue Sep 29 08:52:58 2020, MaxMem=   104857600 cpu:               1.6 elap:               1.6
 (Enter /usr/local/packages/gaussian/g16/l502.exe)
 Integral symmetry usage will be decided dynamically.
 Closed shell SCF:
 Using DIIS extrapolation, IDIIS=  1040.
 NGot=   104857600 LenX=   104793806 LenY=   104763089
 Requested convergence on RMS density matrix=1.00D-08 within 128 cycles.
 Requested convergence on MAX density matrix=1.00D-06.
 Requested convergence on             energy=1.00D-06.
 No special actions if energy rises.
 Fock matrices will be formed incrementally for  20 cycles.

 Cycle   1  Pass 1  IDiag  1:
 FoFJK:  IHMeth= 1 ICntrl=     500 DoSepK=F KAlg= 0 I1Cent=           0 FoldK=F
 IRaf= 990000000 NMat=       1 IRICut=       1 DoRegI=T DoRafI=F ISym2E= 1 IDoP0=0 IntGTp=1.
 FoFCou: FMM=F IPFlag=           0 FMFlag=      100000 FMFlg1=           0
         NFxFlg=           0 DoJE=T BraDBF=F KetDBF=F FulRan=T
         wScrn=  0.000000 ICntrl=       500 IOpCl=  0 I1Cent=           0 NGrid=           0
         NMat0=    1 NMatS0=      1 NMatT0=    0 NMatD0=    1 NMtDS0=    0 NMtDT0=    0
 Petite list used in FoFCou.
 E= -232.039999585847    
 DIIS: error= 4.30D-02 at cycle   1 NSaved=   1.
 NSaved= 1 IEnMin= 1 EnMin= -232.039999585847     IErMin= 1 ErrMin= 4.30D-02
 ErrMax= 4.30D-02  0.00D+00 EMaxC= 1.00D-01 BMatC= 1.43D-01 BMatP= 1.43D-01
 IDIUse=3 WtCom= 5.70D-01 WtEn= 4.30D-01
 Coeff-Com:  0.100D+01
 Coeff-En:   0.100D+01
 Coeff:      0.100D+01
 Gap=     0.124 Goal=   None    Shift=    0.000
 GapD=    0.124 DampG=1.000 DampE=0.500 DampFc=0.5000 IDamp=-1.
 Damping current iteration by 5.00D-01
 RMSDP=8.95D-03 MaxDP=1.68D-01              OVMax= 2.19D-01

 Cycle   2  Pass 1  IDiag  1:
 RMSU=  4.44D-03    CP:  9.55D-01
 E= -232.079988248917     Delta-E=       -0.039988663070 Rises=F Damp=T
 DIIS: error= 1.48D-02 at cycle   2 NSaved=   2.
 NSaved= 2 IEnMin= 2 EnMin= -232.079988248917     IErMin= 2 ErrMin= 1.48D-02
 ErrMax= 1.48D-02  0.00D+00 EMaxC= 1.00D-01 BMatC= 1.64D-02 BMatP= 1.43D-01
 IDIUse=3 WtCom= 8.52D-01 WtEn= 1.48D-01
 Coeff-Com:  0.202D+00 0.798D+00
 Coeff-En:   0.366D+00 0.634D+00
 Coeff:      0.227D+00 0.773D+00
 Gap=     0.205 Goal=   None    Shift=    0.000
 RMSDP=2.63D-03 MaxDP=6.93D-02 DE=-4.00D-02 OVMax= 1.43D-01

 Cycle   3  Pass 1  IDiag  1:
 RMSU=  1.41D-03    CP:  9.68D-01  5.00D-01
 E= -232.197687757395     Delta-E=       -0.117699508478 Rises=F Damp=F
 DIIS: error= 6.08D-03 at cycle   3 NSaved=   3.
 NSaved= 3 IEnMin= 3 EnMin= -232.197687757395     IErMin= 3 ErrMin= 6.08D-03
 ErrMax= 6.08D-03  0.00D+00 EMaxC= 1.00D-01 BMatC= 2.22D-03 BMatP= 1.64D-02
 IDIUse=3 WtCom= 9.39D-01 WtEn= 6.08D-02
 Coeff-Com:  0.277D-01 0.271D+00 0.701D+00
 Coeff-En:   0.000D+00 0.000D+00 0.100D+01
 Coeff:      0.261D-01 0.255D+00 0.719D+00
 Gap=     0.187 Goal=   None    Shift=    0.000
 RMSDP=4.00D-04 MaxDP=6.25D-03 DE=-1.18D-01 OVMax= 1.10D-02

 Cycle   4  Pass 1  IDiag  1:
 RMSU=  3.31D-04    CP:  9.64D-01  5.22D-01  8.60D-01
 E= -232.199727192840     Delta-E=       -0.002039435445 Rises=F Damp=F
 DIIS: error= 8.99D-04 at cycle   4 NSaved=   4.
 NSaved= 4 IEnMin= 4 EnMin= -232.199727192840     IErMin= 4 ErrMin= 8.99D-04
 ErrMax= 8.99D-04  0.00D+00 EMaxC= 1.00D-01 BMatC= 7.68D-05 BMatP= 2.22D-03
 IDIUse=3 WtCom= 9.91D-01 WtEn= 8.99D-03
 Coeff-Com: -0.657D-02 0.376D-01 0.193D+00 0.776D+00
 Coeff-En:   0.000D+00 0.000D+00 0.000D+00 0.100D+01
 Coeff:     -0.651D-02 0.372D-01 0.191D+00 0.778D+00
 Gap=     0.187 Goal=   None    Shift=    0.000
 RMSDP=6.78D-05 MaxDP=7.87D-04 DE=-2.04D-03 OVMax= 2.08D-03

 Cycle   5  Pass 1  IDiag  1:
 RMSU=  3.20D-05    CP:  9.64D-01  5.33D-01  8.78D-01  9.27D-01
 E= -232.199805475160     Delta-E=       -0.000078282320 Rises=F Damp=F
 DIIS: error= 5.24D-05 at cycle   5 NSaved=   5.
 NSaved= 5 IEnMin= 5 EnMin= -232.199805475160     IErMin= 5 ErrMin= 5.24D-05
 ErrMax= 5.24D-05  0.00D+00 EMaxC= 1.00D-01 BMatC= 3.24D-07 BMatP= 7.68D-05
 IDIUse=1 WtCom= 1.00D+00 WtEn= 0.00D+00
 Coeff-Com: -0.113D-02 0.393D-02 0.238D-01 0.132D+00 0.842D+00
 Coeff:     -0.113D-02 0.393D-02 0.238D-01 0.132D+00 0.842D+00
 Gap=     0.187 Goal=   None    Shift=    0.000
 RMSDP=5.99D-06 MaxDP=8.53D-05 DE=-7.83D-05 OVMax= 4.50D-04

 Cycle   6  Pass 1  IDiag  1:
 RMSU=  4.82D-06    CP:  9.64D-01  5.33D-01  8.79D-01  9.25D-01  9.00D-01
 E= -232.199805405983     Delta-E=        0.000000069176 Rises=F Damp=F
 DIIS: error= 1.01D-04 at cycle   6 NSaved=   6.
 NSaved= 6 IEnMin= 5 EnMin= -232.199805475160     IErMin= 5 ErrMin= 5.24D-05
 ErrMax= 1.01D-04  0.00D+00 EMaxC= 1.00D-01 BMatC= 3.40D-07 BMatP= 3.24D-07
 IDIUse=1 WtCom= 1.00D+00 WtEn= 0.00D+00
 Coeff-Com: -0.622D-03 0.188D-02 0.118D-01 0.724D-01 0.569D+00 0.346D+00
 Coeff:     -0.622D-03 0.188D-02 0.118D-01 0.724D-01 0.569D+00 0.346D+00
 Gap=     0.187 Goal=   None    Shift=    0.000
 RMSDP=3.51D-06 MaxDP=5.89D-05 DE= 6.92D-08 OVMax= 3.71D-04

 Cycle   7  Pass 1  IDiag  1:
 RMSU=  1.96D-06    CP:  9.64D-01  5.33D-01  8.79D-01  9.25D-01  9.06D-01
                    CP:  3.98D-01
 E= -232.199805785699     Delta-E=       -0.000000379716 Rises=F Damp=F
 DIIS: error= 2.43D-05 at cycle   7 NSaved=   7.
 NSaved= 7 IEnMin= 7 EnMin= -232.199805785699     IErMin= 7 ErrMin= 2.43D-05
 ErrMax= 2.43D-05  0.00D+00 EMaxC= 1.00D-01 BMatC= 2.06D-08 BMatP= 3.24D-07
 IDIUse=1 WtCom= 1.00D+00 WtEn= 0.00D+00
 Coeff-Com: -0.632D-04 0.178D-03 0.556D-03 0.676D-02 0.747D-01 0.202D+00
 Coeff-Com:  0.716D+00
 Coeff:     -0.632D-04 0.178D-03 0.556D-03 0.676D-02 0.747D-01 0.202D+00
 Coeff:      0.716D+00
 Gap=     0.187 Goal=   None    Shift=    0.000
 RMSDP=9.23D-07 MaxDP=1.57D-05 DE=-3.80D-07 OVMax= 8.67D-05

 Cycle   8  Pass 1  IDiag  1:
 RMSU=  4.31D-07    CP:  9.64D-01  5.33D-01  8.78D-01  9.26D-01  9.09D-01
                    CP:  5.02D-01  7.21D-01
 E= -232.199805807297     Delta-E=       -0.000000021598 Rises=F Damp=F
 DIIS: error= 7.10D-06 at cycle   8 NSaved=   8.
 NSaved= 8 IEnMin= 8 EnMin= -232.199805807297     IErMin= 8 ErrMin= 7.10D-06
 ErrMax= 7.10D-06  0.00D+00 EMaxC= 1.00D-01 BMatC= 3.34D-09 BMatP= 2.06D-08
 IDIUse=1 WtCom= 1.00D+00 WtEn= 0.00D+00
 Coeff-Com: -0.229D-04 0.557D-04-0.626D-04 0.192D-02 0.290D-01 0.124D+00
 Coeff-Com:  0.484D+00 0.362D+00
 Coeff:     -0.229D-04 0.557D-04-0.626D-04 0.192D-02 0.290D-01 0.124D+00
 Coeff:      0.484D+00 0.362D+00
 Gap=     0.187 Goal=   None    Shift=    0.000
 RMSDP=2.43D-07 MaxDP=5.76D-06 DE=-2.16D-08 OVMax= 1.98D-05

 Cycle   9  Pass 1  IDiag  1:
 RMSU=  1.36D-07    CP:  9.64D-01  5.33D-01  8.78D-01  9.26D-01  9.09D-01
                    CP:  4.97D-01  7.45D-01  5.54D-01
 E= -232.199805810602     Delta-E=       -0.000000003305 Rises=F Damp=F
 DIIS: error= 2.85D-07 at cycle   9 NSaved=   9.
 NSaved= 9 IEnMin= 9 EnMin= -232.199805810602     IErMin= 9 ErrMin= 2.85D-07
 ErrMax= 2.85D-07  0.00D+00 EMaxC= 1.00D-01 BMatC= 9.06D-12 BMatP= 3.34D-09
 IDIUse=1 WtCom= 1.00D+00 WtEn= 0.00D+00
 Coeff-Com: -0.519D-05 0.391D-06-0.715D-04-0.139D-04 0.226D-02 0.151D-01
 Coeff-Com:  0.624D-01 0.660D-01 0.854D+00
 Coeff:     -0.519D-05 0.391D-06-0.715D-04-0.139D-04 0.226D-02 0.151D-01
 Coeff:      0.624D-01 0.660D-01 0.854D+00
 Gap=     0.187 Goal=   None    Shift=    0.000
 RMSDP=5.02D-08 MaxDP=8.15D-07 DE=-3.30D-09 OVMax= 1.04D-06

 Cycle  10  Pass 1  IDiag  1:
 RMSU=  8.73D-09    CP:  9.64D-01  5.33D-01  8.78D-01  9.26D-01  9.09D-01
                    CP:  4.98D-01  7.48D-01  5.47D-01  8.87D-01
 E= -232.199805810613     Delta-E=       -0.000000000010 Rises=F Damp=F
 DIIS: error= 9.35D-08 at cycle  10 NSaved=  10.
 NSaved=10 IEnMin=10 EnMin= -232.199805810613     IErMin=10 ErrMin= 9.35D-08
 ErrMax= 9.35D-08  0.00D+00 EMaxC= 1.00D-01 BMatC= 6.58D-13 BMatP= 9.06D-12
 IDIUse=1 WtCom= 1.00D+00 WtEn= 0.00D+00
 Coeff-Com: -0.302D-05-0.153D-06-0.431D-04-0.231D-04 0.116D-02 0.828D-02
 Coeff-Com:  0.343D-01 0.374D-01 0.519D+00 0.400D+00
 Coeff:     -0.302D-05-0.153D-06-0.431D-04-0.231D-04 0.116D-02 0.828D-02
 Coeff:      0.343D-01 0.374D-01 0.519D+00 0.400D+00
 Gap=     0.187 Goal=   None    Shift=    0.000
 RMSDP=3.57D-09 MaxDP=1.01D-07 DE=-1.05D-11 OVMax= 3.99D-07

 SCF Done:  E(RB-LYP) =  -232.199805811     A.U. after   10 cycles
            NFock= 10  Conv=0.36D-08     -V/T= 2.0026
 KE= 2.316024576087D+02 PE=-9.458995222471D+02 EE= 2.786110355319D+02
 Leave Link  502 at Tue Sep 29 08:53:23 2020, MaxMem=   104857600 cpu:              23.9 elap:              24.0
 (Enter /usr/local/packages/gaussian/g16/l601.exe)
 Copying SCF densities to generalized density rwf, IOpCl= 0 IROHF=0.

 **********************************************************************

            Population analysis using the SCF density.

 **********************************************************************

 Orbital symmetries:
       Occupied  (A') (A') (A') (A') (A') (A') (A') (A') (A') (A')
                 (A') (A') (A') (A') (A') (A') (A") (A') (A') (A")
                 (A")
       Virtual   (A") (A") (A') (A') (A') (A') (A') (A") (A') (A')
                 (A") (A") (A') (A") (A") (A") (A') (A') (A') (A')
                 (A') (A') (A') (A") (A') (A') (A') (A') (A') (A')
                 (A') (A') (A') (A') (A') (A') (A') (A') (A') (A')
                 (A') (A') (A") (A') (A') (A') (A") (A") (A') (A")
                 (A") (A") (A') (A') (A') (A') (A') (A') (A') (A')
                 (A') (A') (A') (A') (A') (A') (A") (A") (A') (A')
                 (A") (A") (A") (A") (A') (A') (A') (A') (A') (A')
                 (A") (A") (A") (A') (A') (A') (A') (A") (A") (A")
                 (A') (A') (A') (A") (A") (A') (A') (A') (A') (A')
                 (A') (A") (A") (A") (A') (A") (A') (A') (A') (A')
                 (A') (A') (A") (A') (A') (A') (A') (A') (A') (A')
                 (A") (A") (A") (A") (A') (A') (A') (A") (A') (A')
                 (A') (A') (A') (A') (A') (A') (A') (A') (A') (A')
                 (A') (A') (A') (A') (A') (A') (A')
 The electronic state is 1-A'.
 Alpha  occ. eigenvalues --   -9.90880  -9.90866  -9.90864  -9.90830  -9.90828
 Alpha  occ. eigenvalues --   -9.90812  -0.77235  -0.67088  -0.67072  -0.53921
 Alpha  occ. eigenvalues --   -0.53902  -0.46900  -0.40735  -0.39658  -0.37336
 Alpha  occ. eigenvalues --   -0.37324  -0.32547  -0.30102  -0.30079  -0.22556
 Alpha  occ. eigenvalues --   -0.22545
 Alpha virt. eigenvalues --   -0.03830  -0.03820  -0.00783   0.01254   0.01259
 Alpha virt. eigenvalues --    0.03502   0.03506   0.05239   0.05729   0.06762
 Alpha virt. eigenvalues --    0.07956   0.07958   0.08872   0.09692   0.12880
 Alpha virt. eigenvalues --    0.12882   0.13110   0.13113   0.13214   0.13215
 Alpha virt. eigenvalues --    0.15249   0.17823   0.17829   0.18134   0.19324
 Alpha virt. eigenvalues --    0.19331   0.19523   0.19528   0.20629   0.21552
 Alpha virt. eigenvalues --    0.21564   0.25912   0.27066   0.29526   0.29538
 Alpha virt. eigenvalues --    0.29689   0.29708   0.38218   0.42621   0.46955
 Alpha virt. eigenvalues --    0.49102   0.49129   0.49726   0.50859   0.51413
 Alpha virt. eigenvalues --    0.51420   0.54106   0.54111   0.57255   0.58162
 Alpha virt. eigenvalues --    0.58166   0.63610   0.64837   0.64855   0.68288
 Alpha virt. eigenvalues --    0.68302   0.68389   0.74134   0.78885   0.78893
 Alpha virt. eigenvalues --    0.79051   0.79070   0.81735   0.81809   0.81836
 Alpha virt. eigenvalues --    0.82285   0.89432   0.96622   0.97864   0.97901
 Alpha virt. eigenvalues --    1.03143   1.03151   1.09048   1.09084   1.22845
 Alpha virt. eigenvalues --    1.25512   1.40873   1.44075   1.44082   1.45225
 Alpha virt. eigenvalues --    1.51522   1.51538   1.51569   1.58747   1.58785
 Alpha virt. eigenvalues --    1.60831   1.60962   1.65863   1.71521   1.71536
 Alpha virt. eigenvalues --    1.74279   1.74363   1.79034   1.86453   1.86479
 Alpha virt. eigenvalues --    1.88178   1.88198   1.90256   1.90536   1.94827
 Alpha virt. eigenvalues --    1.94844   2.01837   2.01864   2.25516   2.27778
 Alpha virt. eigenvalues --    2.27912   2.30755   2.30766   2.33218   2.33285
 Alpha virt. eigenvalues --    2.54793   2.54848   2.56414   2.57325   2.60079
 Alpha virt. eigenvalues --    2.64801   2.64816   2.68437   2.68484   2.70052
 Alpha virt. eigenvalues --    2.70678   2.70693   2.80116   2.80132   2.83336
 Alpha virt. eigenvalues --    2.84356   2.84397   2.99066   3.01020   3.24620
 Alpha virt. eigenvalues --    3.24662   3.38698   3.38734   3.40459   3.58954
 Alpha virt. eigenvalues --    3.88772   3.88789   3.98483   4.05305   4.05317
 Alpha virt. eigenvalues --    4.74922  23.28209  23.66405  23.66498  23.79568
 Alpha virt. eigenvalues --   23.79661  23.90528
     Molecular Orbital Coefficients:
                           1         2         3         4         5
                           O         O         O         O         O
     Eigenvalues --    -9.90880  -9.90866  -9.90864  -9.90830  -9.90828
   1 1   C  1S          0.28634  -0.29781   0.08069   0.31819  -0.06433
   2        2S          0.23480  -0.24390   0.06609   0.26046  -0.05266
   3        2PX        -0.00032   0.00011   0.00048   0.00041   0.00023
   4        2PY         0.00014   0.00019   0.00083  -0.00008   0.00058
   5        2PZ         0.00000   0.00000   0.00000   0.00000   0.00000
   6        3S          0.01084  -0.01253   0.00336   0.01308  -0.00264
   7        3PX         0.00184  -0.00018  -0.00232  -0.00163  -0.00084
   8        3PY        -0.00086  -0.00106  -0.00392   0.00038  -0.00221
   9        3PZ         0.00000   0.00000   0.00000   0.00000   0.00000
  10        4S         -0.00567   0.00680  -0.00217  -0.01116   0.00184
  11        4PX         0.00008  -0.00178   0.00143   0.00587  -0.00063
  12        4PY        -0.00011   0.00139   0.00089  -0.00317   0.00120
  13        4PZ         0.00000   0.00000   0.00000   0.00000   0.00000
  14        5S          0.00120  -0.00875   0.00187   0.01341  -0.00364
  15        5PX        -0.00142   0.00204  -0.00172  -0.00238  -0.00020
  16        5PY         0.00091  -0.00177  -0.00177   0.00093  -0.00173
  17        5PZ         0.00000   0.00000   0.00000   0.00000   0.00000
  18        6D 0       -0.00052   0.00084  -0.00024  -0.00183   0.00038
  19        6D+1        0.00000   0.00000   0.00000   0.00000   0.00000
  20        6D-1        0.00000   0.00000   0.00000   0.00000   0.00000
  21        6D+2        0.00048   0.00043   0.00208  -0.00013   0.00113
  22        6D-2       -0.00101   0.00031   0.00117   0.00073   0.00046
  23 2   C  1S          0.25622  -0.17405  -0.25596  -0.25214  -0.22330
  24        2S          0.21014  -0.14254  -0.20966  -0.20641  -0.18279
  25        2PX         0.00013  -0.00073   0.00065   0.00043  -0.00046
  26        2PY         0.00036  -0.00001  -0.00004   0.00027   0.00027
  27        2PZ         0.00000   0.00000   0.00000   0.00000   0.00000
  28        3S          0.00959  -0.00737  -0.01063  -0.01035  -0.00912
  29        3PX        -0.00059   0.00346  -0.00311  -0.00160   0.00173
  30        3PY        -0.00209  -0.00026  -0.00005  -0.00107  -0.00114
  31        3PZ         0.00000   0.00000   0.00000   0.00000   0.00000
  32        4S         -0.00459   0.00298   0.00577   0.00916   0.00609
  33        4PX         0.00019  -0.00112   0.00102   0.00053  -0.00052
  34        4PY         0.00040   0.00065   0.00171   0.00527   0.00361
  35        4PZ         0.00000   0.00000   0.00000   0.00000   0.00000
  36        5S          0.00053  -0.00644  -0.00677  -0.00897  -0.01218
  37        5PX        -0.00030   0.00181  -0.00164  -0.00116   0.00115
  38        5PY         0.00151  -0.00188  -0.00219  -0.00176  -0.00237
  39        5PZ         0.00000   0.00000   0.00000   0.00000   0.00000
  40        6D 0       -0.00040   0.00044   0.00069   0.00137   0.00127
  41        6D+1        0.00000   0.00000   0.00000   0.00000   0.00000
  42        6D-1        0.00000   0.00000   0.00000   0.00000   0.00000
  43        6D+2       -0.00113   0.00002   0.00017  -0.00045  -0.00049
  44        6D-2       -0.00031   0.00181  -0.00163  -0.00084   0.00089
  45 3   C  1S          0.23115  -0.04824   0.30947  -0.13601   0.31085
  46        2S          0.18960  -0.03948   0.25351  -0.11135   0.25448
  47        2PX        -0.00024  -0.00048  -0.00020   0.00019   0.00041
  48        2PY        -0.00031   0.00080   0.00020  -0.00059  -0.00002
  49        2PZ         0.00000   0.00000   0.00000   0.00000   0.00000
  50        3S          0.00855  -0.00215   0.01284  -0.00562   0.01267
  51        3PX         0.00149   0.00242   0.00066  -0.00071  -0.00165
  52        3PY         0.00166  -0.00369  -0.00113   0.00220   0.00005
  53        3PZ         0.00000   0.00000   0.00000   0.00000   0.00000
  54        4S         -0.00404   0.00040  -0.00586   0.00592  -0.00844
  55        4PX        -0.00040  -0.00069   0.00088  -0.00256   0.00431
  56        4PY        -0.00049   0.00124   0.00100  -0.00226   0.00218
  57        4PZ         0.00000   0.00000   0.00000   0.00000   0.00000
  58        5S         -0.00032  -0.00286   0.00918  -0.00265   0.01605
  59        5PX        -0.00127   0.00178  -0.00221  -0.00028  -0.00306
  60        5PY        -0.00032  -0.00162  -0.00205   0.00157  -0.00112
  61        5PZ         0.00000   0.00000   0.00000   0.00000   0.00000
  62        6D 0       -0.00031   0.00011  -0.00077   0.00070  -0.00170
  63        6D+1        0.00000   0.00000   0.00000   0.00000   0.00000
  64        6D-1        0.00000   0.00000   0.00000   0.00000   0.00000
  65        6D+2        0.00088  -0.00197  -0.00047   0.00111   0.00010
  66        6D-2        0.00080   0.00120   0.00056  -0.00042  -0.00074
  67 4   C  1S          0.19608   0.24930   0.23315  -0.19968  -0.24403
  68        2S          0.16087   0.20426   0.19099  -0.16348  -0.19977
  69        2PX         0.00008  -0.00068   0.00065  -0.00053   0.00046
  70        2PY        -0.00034  -0.00011  -0.00006  -0.00020  -0.00027
  71        2PZ         0.00000   0.00000   0.00000   0.00000   0.00000
  72        3S          0.00710   0.01018   0.00970  -0.00805  -0.00999
  73        3PX        -0.00041   0.00326  -0.00309   0.00206  -0.00174
  74        3PY         0.00207   0.00033   0.00004   0.00086   0.00114
  75        3PZ         0.00000   0.00000   0.00000   0.00000   0.00000
  76        4S         -0.00375  -0.00445  -0.00515   0.00300   0.00661
  77        4PX         0.00014  -0.00105   0.00100  -0.00066   0.00053
  78        4PY        -0.00044   0.00065   0.00136  -0.00159  -0.00378
  79        4PZ         0.00000   0.00000   0.00000   0.00000   0.00000
  80        5S         -0.00150   0.00669   0.00562  -0.01401  -0.01265
  81        5PX        -0.00020   0.00167  -0.00160   0.00139  -0.00116
  82        5PY        -0.00086  -0.00231  -0.00196   0.00287   0.00253
  83        5PZ         0.00000   0.00000   0.00000   0.00000   0.00000
  84        6D 0       -0.00026  -0.00058  -0.00057   0.00106   0.00132
  85        6D+1        0.00000   0.00000   0.00000   0.00000   0.00000
  86        6D-1        0.00000   0.00000   0.00000   0.00000   0.00000
  87        6D+2       -0.00107  -0.00034  -0.00020  -0.00036  -0.00048
  88        6D-2        0.00022  -0.00171   0.00162  -0.00107   0.00090
  89 5   C  1S          0.18928   0.34067  -0.06799   0.30097  -0.07391
  90        2S          0.15530   0.27910  -0.05569   0.24640  -0.06050
  91        2PX         0.00028   0.00021   0.00045  -0.00036  -0.00026
  92        2PY        -0.00018   0.00011   0.00081   0.00002  -0.00063
  93        2PZ         0.00000   0.00000   0.00000   0.00000   0.00000
  94        3S          0.00680   0.01401  -0.00284   0.01223  -0.00303
  95        3PX        -0.00171  -0.00079  -0.00219   0.00153   0.00097
  96        3PY         0.00111  -0.00065  -0.00383  -0.00013   0.00242
  97        3PZ         0.00000   0.00000   0.00000   0.00000   0.00000
  98        4S         -0.00331  -0.00738   0.00181  -0.00572   0.00196
  99        4PX         0.00051  -0.00134   0.00122  -0.00285   0.00058
 100        4PY        -0.00034   0.00113   0.00095   0.00139  -0.00126
 101        4PZ         0.00000   0.00000   0.00000   0.00000   0.00000
 102        5S         -0.00102   0.00728  -0.00117   0.01943  -0.00403
 103        5PX         0.00082   0.00213  -0.00155   0.00366   0.00017
 104        5PY        -0.00041  -0.00180  -0.00174  -0.00158   0.00189
 105        5PZ         0.00000   0.00000   0.00000   0.00000   0.00000
 106        6D 0       -0.00027  -0.00080   0.00017  -0.00160   0.00041
 107        6D+1        0.00000   0.00000   0.00000   0.00000   0.00000
 108        6D-1        0.00000   0.00000   0.00000   0.00000   0.00000
 109        6D+2        0.00057  -0.00022  -0.00204   0.00001   0.00124
 110        6D-2       -0.00088  -0.00063  -0.00110   0.00067   0.00053
 111 6   C  1S          0.20538   0.13456  -0.30141  -0.06271   0.31947
 112        2S          0.16850   0.11026  -0.24691  -0.05135   0.26155
 113        2PX         0.00037  -0.00039  -0.00023  -0.00027  -0.00038
 114        2PY         0.00007   0.00081   0.00023   0.00061  -0.00002
 115        2PZ         0.00000   0.00000   0.00000   0.00000   0.00000
 116        3S          0.00749   0.00541  -0.01251  -0.00245   0.01303
 117        3PX        -0.00212   0.00188   0.00078   0.00103   0.00152
 118        3PY        -0.00054  -0.00384  -0.00124  -0.00235   0.00016
 119        3PZ         0.00000   0.00000   0.00000   0.00000   0.00000
 120        4S         -0.00390  -0.00214   0.00564  -0.00062  -0.00852
 121        4PX         0.00050  -0.00081   0.00074  -0.00076  -0.00426
 122        4PY         0.00006   0.00113   0.00097   0.00045  -0.00225
 123        4PZ         0.00000   0.00000   0.00000   0.00000   0.00000
 124        5S         -0.00144   0.00369  -0.00873  -0.00716   0.01640
 125        5PX         0.00065   0.00221  -0.00208  -0.00044   0.00308
 126        5PY         0.00071  -0.00126  -0.00209  -0.00216   0.00129
 127        5PZ         0.00000   0.00000   0.00000   0.00000   0.00000
 128        6D 0       -0.00026  -0.00031   0.00073   0.00034  -0.00172
 129        6D+1        0.00000   0.00000   0.00000   0.00000   0.00000
 130        6D-1        0.00000   0.00000   0.00000   0.00000   0.00000
 131        6D+2        0.00028   0.00205   0.00053   0.00120  -0.00001
 132        6D-2        0.00111  -0.00091  -0.00062  -0.00056  -0.00066
 133 7   H  1S         -0.00012  -0.00019   0.00005   0.00036  -0.00008
 134        2S         -0.00328   0.00264  -0.00076  -0.00312   0.00059
 135        3S          0.00344  -0.00096   0.00027  -0.00044   0.00008
 136        4PX         0.00172  -0.00123   0.00027   0.00107  -0.00024
 137        4PY        -0.00098   0.00067  -0.00033  -0.00064   0.00006
 138        4PZ         0.00000   0.00000   0.00000   0.00000   0.00000
 139 8   H  1S         -0.00016  -0.00005   0.00014  -0.00014   0.00031
 140        2S         -0.00276   0.00029  -0.00276   0.00146  -0.00289
 141        3S          0.00332  -0.00005   0.00155   0.00017   0.00006
 142        4PX         0.00148  -0.00008   0.00137  -0.00054   0.00107
 143        4PY         0.00088  -0.00021   0.00075  -0.00023   0.00065
 144        4PZ         0.00000   0.00000   0.00000   0.00000   0.00000
 145 9   H  1S         -0.00016   0.00007   0.00011  -0.00018  -0.00025
 146        2S         -0.00246  -0.00231  -0.00214   0.00168   0.00224
 147        3S          0.00305   0.00160   0.00109  -0.00039  -0.00000
 148        4PX        -0.00001   0.00010  -0.00010   0.00006  -0.00005
 149        4PY         0.00153   0.00134   0.00118  -0.00081  -0.00097
 150        4PZ         0.00000   0.00000   0.00000   0.00000   0.00000
 151 10  H  1S         -0.00017   0.00012  -0.00003   0.00029  -0.00008
 152        2S         -0.00238  -0.00323   0.00065  -0.00259   0.00067
 153        3S          0.00303   0.00192  -0.00028   0.00034   0.00002
 154        4PX        -0.00129  -0.00159   0.00023  -0.00103   0.00029
 155        4PY         0.00075   0.00088  -0.00030   0.00062  -0.00008
 156        4PZ         0.00000   0.00000   0.00000   0.00000   0.00000
 157 11  H  1S         -0.00016   0.00002  -0.00013  -0.00005   0.00032
 158        2S         -0.00255  -0.00127   0.00269   0.00041  -0.00296
 159        3S          0.00313   0.00102  -0.00156  -0.00033   0.00011
 160        4PX        -0.00138  -0.00058   0.00135   0.00026  -0.00112
 161        4PY        -0.00078  -0.00050   0.00073   0.00006  -0.00066
 162        4PZ         0.00000   0.00000   0.00000   0.00000   0.00000
 163 12  H  1S         -0.00014  -0.00011  -0.00013  -0.00027  -0.00024
 164        2S         -0.00298   0.00142   0.00235   0.00253   0.00205
 165        3S          0.00341  -0.00064  -0.00110   0.00021   0.00008
 166        4PX        -0.00002   0.00011  -0.00010  -0.00005   0.00005
 167        4PY        -0.00184   0.00081   0.00128   0.00104   0.00087
 168        4PZ         0.00000   0.00000   0.00000   0.00000   0.00000
                           6         7         8         9        10
                           O         O         O         O         O
     Eigenvalues --    -9.90812  -0.77235  -0.67088  -0.67072  -0.53921
   1 1   C  1S         -0.18730  -0.05245   0.01583   0.07174  -0.05644
   2        2S         -0.15323  -0.07932   0.02407   0.10911  -0.08682
   3        2PX        -0.00023  -0.02576  -0.02365   0.01548   0.03613
   4        2PY         0.00017   0.01489  -0.04592   0.00413   0.00343
   5        2PZ         0.00000   0.00000   0.00000   0.00000   0.00000
   6        3S         -0.00842   0.20665  -0.06418  -0.29096   0.23725
   7        3PX         0.00068  -0.03693  -0.03307   0.02269   0.04845
   8        3PY        -0.00052   0.02134  -0.06478   0.00531   0.00477
   9        3PZ         0.00000   0.00000   0.00000   0.00000   0.00000
  10        4S          0.02789   0.09482  -0.03268  -0.14816   0.15040
  11        4PX        -0.01468  -0.00819  -0.01206   0.00473   0.01982
  12        4PY         0.00845   0.00474  -0.02198   0.00360   0.00213
  13        4PZ         0.00000   0.00000   0.00000   0.00000   0.00000
  14        5S          0.02685  -0.00078  -0.00242  -0.00973  -0.13120
  15        5PX        -0.00517   0.00459   0.00547  -0.01369   0.03341
  16        5PY         0.00289  -0.00262   0.01541   0.00375  -0.01821
  17        5PZ         0.00000   0.00000   0.00000   0.00000   0.00000
  18        6D 0        0.00124  -0.00898   0.00181   0.00820  -0.00459
  19        6D+1        0.00000   0.00000   0.00000   0.00000   0.00000
  20        6D-1        0.00000   0.00000   0.00000   0.00000   0.00000
  21        6D+2        0.00024  -0.00013   0.01054   0.00038  -0.00267
  22        6D-2       -0.00031   0.00025   0.00475  -0.00576   0.00111
  23 2   C  1S          0.20680  -0.05248  -0.05425   0.04955   0.03897
  24        2S          0.16920  -0.07936  -0.08250   0.07536   0.05994
  25        2PX         0.00008  -0.00007  -0.03574  -0.03895   0.07207
  26        2PY        -0.00030   0.02977   0.00858  -0.00786   0.02055
  27        2PZ         0.00000   0.00000   0.00000   0.00000   0.00000
  28        3S          0.00922   0.20676   0.21998  -0.20095  -0.16378
  29        3PX        -0.00032  -0.00007  -0.05028  -0.05487   0.09725
  30        3PY         0.00089   0.04266   0.01286  -0.01175   0.02749
  31        3PZ         0.00000   0.00000   0.00000   0.00000   0.00000
  32        4S         -0.02836   0.09481   0.11198  -0.10233  -0.10379
  33        4PX         0.00004  -0.00003  -0.01736  -0.01892   0.04017
  34        4PY        -0.01715   0.00945   0.00177  -0.00157   0.01117
  35        4PZ         0.00000   0.00000   0.00000   0.00000   0.00000
  36        5S         -0.02608  -0.00048   0.00755  -0.00643   0.09059
  37        5PX        -0.00022  -0.00003   0.01107   0.01222   0.00313
  38        5PY        -0.00574  -0.00524  -0.01033   0.00955   0.02627
  39        5PZ         0.00000   0.00000   0.00000   0.00000   0.00000
  40        6D 0       -0.00132  -0.00899  -0.00620   0.00566   0.00317
  41        6D+1        0.00000   0.00000   0.00000   0.00000   0.00000
  42        6D-1        0.00000   0.00000   0.00000   0.00000   0.00000
  43        6D+2        0.00041   0.00029   0.00393  -0.00357  -0.00160
  44        6D-2       -0.00016   0.00000  -0.00794  -0.00871   0.00615
  45 3   C  1S          0.22583  -0.05247   0.07003   0.02220   0.01746
  46        2S          0.18478  -0.07935   0.10651   0.03376   0.02686
  47        2PX         0.00031  -0.02579   0.01761  -0.02217   0.03863
  48        2PY         0.00008  -0.01486  -0.00828   0.04539  -0.08519
  49        2PZ         0.00000   0.00000   0.00000   0.00000   0.00000
  50        3S          0.01000   0.20672  -0.28398  -0.09002  -0.07340
  51        3PX        -0.00098  -0.03695   0.02565  -0.03095   0.05225
  52        3PY        -0.00019  -0.02131  -0.01115   0.06408  -0.11498
  53        3PZ         0.00000   0.00000   0.00000   0.00000   0.00000
  54        4S         -0.02877   0.09477  -0.14450  -0.04581  -0.04656
  55        4PX         0.01511  -0.00816   0.00577  -0.01164   0.02163
  56        4PY         0.00858  -0.00471  -0.00561   0.02155  -0.04741
  57        4PZ         0.00000   0.00000   0.00000   0.00000   0.00000
  58        5S         -0.02519  -0.00052  -0.00890  -0.00272   0.04028
  59        5PX         0.00470   0.00451  -0.01416   0.00418  -0.00813
  60        5PY         0.00296   0.00262  -0.00245  -0.01581  -0.00936
  61        5PZ         0.00000   0.00000   0.00000   0.00000   0.00000
  62        6D 0       -0.00140  -0.00898   0.00801   0.00254   0.00142
  63        6D+1        0.00000   0.00000   0.00000   0.00000   0.00000
  64        6D-1        0.00000   0.00000   0.00000   0.00000   0.00000
  65        6D+2       -0.00007  -0.00014  -0.00056   0.01054  -0.00658
  66        6D-2       -0.00045  -0.00024   0.00616  -0.00423   0.00462
  67 4   C  1S         -0.25154  -0.05248   0.05423  -0.04956   0.03901
  68        2S         -0.20583  -0.07936   0.08247  -0.07538   0.06001
  69        2PX        -0.00003   0.00003  -0.03568  -0.03903  -0.07206
  70        2PY        -0.00035  -0.02976   0.00859  -0.00784  -0.02048
  71        2PZ         0.00000   0.00000   0.00000   0.00000   0.00000
  72        3S         -0.01105   0.20676  -0.21990   0.20099  -0.16396
  73        3PX         0.00007   0.00004  -0.05022  -0.05496  -0.09727
  74        3PY         0.00111  -0.04265   0.01286  -0.01173  -0.02742
  75        3PZ         0.00000   0.00000   0.00000   0.00000   0.00000
  76        4S          0.02956   0.09483  -0.11197   0.10233  -0.10389
  77        4PX        -0.00001   0.00001  -0.01733  -0.01897  -0.04016
  78        4PY        -0.01785  -0.00946   0.00175  -0.00157  -0.01119
  79        4PZ         0.00000   0.00000   0.00000   0.00000   0.00000
  80        5S          0.02366  -0.00090  -0.00743   0.00642   0.09111
  81        5PX         0.00005  -0.00000   0.01115   0.01221  -0.00308
  82        5PY        -0.00526   0.00530  -0.01035   0.00954  -0.02638
  83        5PZ         0.00000   0.00000   0.00000   0.00000   0.00000
  84        6D 0        0.00157  -0.00899   0.00620  -0.00566   0.00317
  85        6D+1        0.00000   0.00000   0.00000   0.00000   0.00000
  86        6D-1        0.00000   0.00000   0.00000   0.00000   0.00000
  87        6D+2       -0.00050   0.00029  -0.00393   0.00358  -0.00160
  88        6D-2       -0.00004  -0.00000   0.00795   0.00870   0.00617
  89 5   C  1S          0.25516  -0.05247  -0.01578  -0.07176  -0.05643
  90        2S          0.20879  -0.07934  -0.02401  -0.10913  -0.08680
  91        2PX        -0.00031   0.02577  -0.02362   0.01550  -0.03614
  92        2PY         0.00018  -0.01487  -0.04592   0.00420  -0.00345
  93        2PZ         0.00000   0.00000   0.00000   0.00000   0.00000
  94        3S          0.01119   0.20670   0.06401   0.29099   0.23718
  95        3PX         0.00099   0.03694  -0.03306   0.02271  -0.04848
  96        3PY        -0.00057  -0.02133  -0.06477   0.00540  -0.00483
  97        3PZ         0.00000   0.00000   0.00000   0.00000   0.00000
  98        4S         -0.02970   0.09481   0.03263   0.14816   0.15026
  99        4PX        -0.01556   0.00819  -0.01207   0.00474  -0.01984
 100        4PY         0.00900  -0.00473  -0.02197   0.00364  -0.00208
 101        4PZ         0.00000   0.00000   0.00000   0.00000   0.00000
 102        5S         -0.02334  -0.00051   0.00234   0.00967  -0.13168
 103        5PX        -0.00452  -0.00452   0.00549  -0.01368  -0.03347
 104        5PY         0.00260   0.00262   0.01547   0.00378   0.01830
 105        5PZ         0.00000   0.00000   0.00000   0.00000   0.00000
 106        6D 0       -0.00161  -0.00898  -0.00181  -0.00820  -0.00459
 107        6D+1        0.00000   0.00000   0.00000   0.00000   0.00000
 108        6D-1        0.00000   0.00000   0.00000   0.00000   0.00000
 109        6D+2       -0.00026  -0.00014  -0.01054  -0.00039  -0.00271
 110        6D-2        0.00045   0.00024  -0.00477   0.00576   0.00108
 111 6   C  1S         -0.24602  -0.05249  -0.07003  -0.02215   0.01740
 112        2S         -0.20131  -0.07937  -0.10651  -0.03369   0.02676
 113        2PX         0.00026   0.02580   0.01764  -0.02218  -0.03861
 114        2PY         0.00021   0.01486  -0.00833   0.04540   0.08518
 115        2PZ         0.00000   0.00000   0.00000   0.00000   0.00000
 116        3S         -0.01083   0.20678   0.28399   0.08983  -0.07311
 117        3PX        -0.00082   0.03696   0.02568  -0.03096  -0.05221
 118        3PY        -0.00069   0.02130  -0.01122   0.06408   0.11494
 119        3PZ         0.00000   0.00000   0.00000   0.00000   0.00000
 120        4S          0.02933   0.09481   0.14449   0.04575  -0.04627
 121        4PX         0.01529   0.00818   0.00579  -0.01164  -0.02159
 122        4PY         0.00893   0.00470  -0.00565   0.02154   0.04746
 123        4PZ         0.00000   0.00000   0.00000   0.00000   0.00000
 124        5S          0.02409  -0.00088   0.00886   0.00279   0.04091
 125        5PX         0.00468  -0.00459  -0.01421   0.00417   0.00821
 126        5PY         0.00255  -0.00262  -0.00239  -0.01580   0.00940
 127        5PZ         0.00000   0.00000   0.00000   0.00000   0.00000
 128        6D 0        0.00152  -0.00899  -0.00801  -0.00253   0.00141
 129        6D+1        0.00000   0.00000   0.00000   0.00000   0.00000
 130        6D-1        0.00000   0.00000   0.00000   0.00000   0.00000
 131        6D+2        0.00032  -0.00014   0.00056  -0.01054  -0.00656
 132        6D-2        0.00036  -0.00025  -0.00616   0.00423   0.00461
 133 7   H  1S         -0.00036   0.02122  -0.01071  -0.04831   0.07042
 134        2S          0.00349   0.02357  -0.01228  -0.05523   0.08674
 135        3S          0.00304  -0.00453   0.00029   0.00132   0.01341
 136        4PX        -0.00068  -0.00383   0.00042   0.00874  -0.00945
 137        4PY         0.00039   0.00221  -0.00361  -0.00429   0.00677
 138        4PZ         0.00000   0.00000   0.00000   0.00000   0.00000
 139 8   H  1S          0.00039   0.02123  -0.04714  -0.01496  -0.02178
 140        2S         -0.00385   0.02357  -0.05388  -0.01710  -0.02682
 141        3S         -0.00296  -0.00454   0.00130   0.00041  -0.00415
 142        4PX         0.00083  -0.00383   0.00866   0.00118   0.00568
 143        4PY         0.00049  -0.00221   0.00396   0.00398  -0.00269
 144        4PZ         0.00000   0.00000   0.00000   0.00000   0.00000
 145 9   H  1S         -0.00042   0.02123  -0.03650   0.03337  -0.04867
 146        2S          0.00408   0.02358  -0.04173   0.03815  -0.05994
 147        3S          0.00300  -0.00453   0.00100  -0.00091  -0.00927
 148        4PX         0.00000   0.00000  -0.00202  -0.00221  -0.00400
 149        4PY        -0.00105  -0.00443   0.00735  -0.00671   0.00800
 150        4PZ         0.00000   0.00000   0.00000   0.00000   0.00000
 151 10  H  1S          0.00043   0.02123   0.01064   0.04835   0.07040
 152        2S         -0.00413   0.02358   0.01216   0.05527   0.08669
 153        3S         -0.00302  -0.00454  -0.00029  -0.00132   0.01340
 154        4PX        -0.00092   0.00383   0.00039   0.00874   0.00943
 155        4PY         0.00053  -0.00221  -0.00360  -0.00430  -0.00679
 156        4PZ         0.00000   0.00000   0.00000   0.00000   0.00000
 157 11  H  1S         -0.00041   0.02123   0.04714   0.01492  -0.02174
 158        2S          0.00404   0.02358   0.05388   0.01704  -0.02677
 159        3S          0.00297  -0.00454  -0.00130  -0.00041  -0.00414
 160        4PX         0.00090   0.00383   0.00867   0.00117  -0.00568
 161        4PY         0.00051   0.00221   0.00396   0.00397   0.00268
 162        4PZ         0.00000   0.00000   0.00000   0.00000   0.00000
 163 12  H  1S          0.00037   0.02123   0.03655  -0.03332  -0.04875
 164        2S         -0.00367   0.02358   0.04181  -0.03807  -0.06006
 165        3S         -0.00299  -0.00454  -0.00100   0.00092  -0.00928
 166        4PX        -0.00001  -0.00000  -0.00201  -0.00221   0.00398
 167        4PY        -0.00088   0.00442   0.00737  -0.00669  -0.00802
 168        4PZ         0.00000   0.00000   0.00000   0.00000   0.00000
                          11        12        13        14        15
                           O         O         O         O         O
     Eigenvalues --    -0.53902  -0.46900  -0.40735  -0.39658  -0.37336
   1 1   C  1S          0.01249   0.00580   0.03327  -0.00009   0.00397
   2        2S          0.01922   0.00872   0.05147  -0.00014   0.00615
   3        2PX         0.04213  -0.08109  -0.05345  -0.06667   0.01896
   4        2PY         0.08573   0.04674   0.03081  -0.11411  -0.05337
   5        2PZ         0.00000   0.00000   0.00000   0.00000   0.00000
   6        3S         -0.05252  -0.02369  -0.14255   0.00043  -0.01871
   7        3PX         0.05694  -0.10976  -0.07201  -0.09117   0.02202
   8        3PY         0.11574   0.06329   0.04153  -0.15608  -0.07821
   9        3PZ         0.00000   0.00000   0.00000   0.00000   0.00000
  10        4S         -0.03332  -0.03455  -0.15269   0.00047  -0.01885
  11        4PX         0.02353  -0.05706  -0.03056  -0.04643   0.03460
  12        4PY         0.04774   0.03287   0.01774  -0.07944  -0.00835
  13        4PZ         0.00000   0.00000   0.00000   0.00000   0.00000
  14        5S          0.02911  -0.00629   0.19337  -0.00016   0.01496
  15        5PX        -0.00521  -0.00141  -0.03650  -0.00154  -0.01304
  16        5PY         0.00782   0.00071   0.02099  -0.00250  -0.03245
  17        5PZ         0.00000   0.00000   0.00000   0.00000   0.00000
  18        6D 0        0.00101  -0.00178   0.00101   0.00001  -0.00022
  19        6D+1        0.00000   0.00000   0.00000   0.00000   0.00000
  20        6D-1        0.00000   0.00000   0.00000   0.00000   0.00000
  21        6D+2       -0.00684   0.00393  -0.00924   0.00471   0.01798
  22        6D-2       -0.00452  -0.00685   0.01595   0.00277   0.00941
  23 2   C  1S          0.04266   0.00582  -0.03329  -0.00013  -0.00890
  24        2S          0.06563   0.00873  -0.05151  -0.00020  -0.01378
  25        2PX        -0.06589   0.00006  -0.00007   0.13218  -0.02865
  26        2PY         0.02223   0.09362  -0.06141   0.00061   0.09654
  27        2PZ         0.00000   0.00000   0.00000   0.00000   0.00000
  28        3S         -0.17935  -0.02374   0.14266   0.00061   0.04193
  29        3PX        -0.08898   0.00006  -0.00007   0.18075  -0.04419
  30        3PY         0.02977   0.12673  -0.08275   0.00082   0.13026
  31        3PZ         0.00000   0.00000   0.00000   0.00000   0.00000
  32        4S         -0.11377  -0.03466   0.15280   0.00071   0.04202
  33        4PX        -0.03670   0.00007   0.00003   0.09202   0.00765
  34        4PY         0.01212   0.06583  -0.03514   0.00043   0.07623
  35        4PZ         0.00000   0.00000   0.00000   0.00000   0.00000
  36        5S          0.09954  -0.00538  -0.19358  -0.00045  -0.03540
  37        5PX        -0.00285   0.00013  -0.00002   0.00311  -0.02671
  38        5PY         0.02881   0.00174  -0.04211   0.00001   0.01069
  39        5PZ         0.00000   0.00000   0.00000   0.00000   0.00000
  40        6D 0        0.00347  -0.00178  -0.00101   0.00001   0.00048
  41        6D+1        0.00000   0.00000   0.00000   0.00000   0.00000
  42        6D-1        0.00000   0.00000   0.00000   0.00000   0.00000
  43        6D+2       -0.00172  -0.00790  -0.01843   0.00002   0.00186
  44        6D-2       -0.00569  -0.00003   0.00004   0.00546  -0.01571
  45 3   C  1S         -0.05509   0.00570  -0.03331  -0.00000   0.01293
  46        2S         -0.08474   0.00856  -0.05153  -0.00001   0.02003
  47        2PX         0.03982  -0.08105   0.05350  -0.06577   0.12508
  48        2PY        -0.01094  -0.04667   0.03077   0.11414   0.06243
  49        2PZ         0.00000   0.00000   0.00000   0.00000   0.00000
  50        3S          0.23157  -0.02326   0.14270   0.00001  -0.06093
  51        3PX         0.05347  -0.10970   0.07211  -0.08991   0.16953
  52        3PY        -0.01493  -0.06317   0.04147   0.15604   0.08282
  53        3PZ         0.00000   0.00000   0.00000   0.00000   0.00000
  54        4S          0.14686  -0.03425   0.15278  -0.00003  -0.06080
  55        4PX         0.02197  -0.05698   0.03061  -0.04604   0.09407
  56        4PY        -0.00631  -0.03283   0.01766   0.07990   0.05679
  57        4PZ         0.00000   0.00000   0.00000   0.00000   0.00000
  58        5S         -0.12865  -0.00496  -0.19350  -0.00001   0.05417
  59        5PX         0.03289  -0.00147   0.03654  -0.00141   0.01675
  60        5PY         0.01754  -0.00091   0.02100   0.00241   0.00068
  61        5PZ         0.00000   0.00000   0.00000   0.00000   0.00000
  62        6D 0       -0.00447  -0.00178  -0.00101   0.00000  -0.00069
  63        6D+1        0.00000   0.00000   0.00000   0.00000   0.00000
  64        6D-1        0.00000   0.00000   0.00000   0.00000   0.00000
  65        6D+2       -0.00329   0.00396   0.00921   0.00457  -0.00267
  66        6D-2       -0.00069   0.00684   0.01599  -0.00263   0.00456
  67 4   C  1S          0.04262   0.00578   0.03332   0.00008   0.00888
  68        2S          0.06556   0.00868   0.05156   0.00012   0.01376
  69        2PX         0.06591   0.00024  -0.00004   0.13204  -0.02876
  70        2PY        -0.02230  -0.09359  -0.06150   0.00083   0.09654
  71        2PZ         0.00000   0.00000   0.00000   0.00000   0.00000
  72        3S         -0.17914  -0.02361  -0.14279  -0.00037  -0.04187
  73        3PX         0.08899   0.00032  -0.00007   0.18055  -0.04433
  74        3PY        -0.02985  -0.12670  -0.08288   0.00113   0.13024
  75        3PZ         0.00000   0.00000   0.00000   0.00000   0.00000
  76        4S         -0.11354  -0.03447  -0.15290  -0.00046  -0.04194
  77        4PX         0.03677   0.00014  -0.00004   0.09195   0.00760
  78        4PY        -0.01217  -0.06586  -0.03522   0.00063   0.07615
  79        4PZ         0.00000   0.00000   0.00000   0.00000   0.00000
  80        5S          0.09957  -0.00592   0.19368   0.00030   0.03592
  81        5PX         0.00286  -0.00003   0.00006   0.00295  -0.02706
  82        5PY        -0.02883  -0.00161  -0.04213   0.00006   0.01060
  83        5PZ         0.00000   0.00000   0.00000   0.00000   0.00000
  84        6D 0        0.00346  -0.00178   0.00100   0.00000  -0.00048
  85        6D+1        0.00000   0.00000   0.00000   0.00000   0.00000
  86        6D-1        0.00000   0.00000   0.00000   0.00000   0.00000
  87        6D+2       -0.00172  -0.00790   0.01844   0.00002  -0.00186
  88        6D-2       -0.00565  -0.00002   0.00001  -0.00544   0.01570
  89 5   C  1S          0.01243   0.00581  -0.03330   0.00005  -0.00394
  90        2S          0.01911   0.00872  -0.05152   0.00008  -0.00611
  91        2PX        -0.04207   0.08098  -0.05343  -0.06677   0.01905
  92        2PY        -0.08583  -0.04702   0.03085  -0.11390  -0.05337
  93        2PZ         0.00000   0.00000   0.00000   0.00000   0.00000
  94        3S         -0.05223  -0.02370   0.14267  -0.00025   0.01859
  95        3PX        -0.05687   0.10961  -0.07200  -0.09130   0.02213
  96        3PY        -0.11584  -0.06364   0.04156  -0.15578  -0.07819
  97        3PZ         0.00000   0.00000   0.00000   0.00000   0.00000
  98        4S         -0.03307  -0.03461   0.15276  -0.00029   0.01869
  99        4PX        -0.02353   0.05696  -0.03059  -0.04654   0.03461
 100        4PY        -0.04782  -0.03303   0.01769  -0.07928  -0.00826
 101        4PZ         0.00000   0.00000   0.00000   0.00000   0.00000
 102        5S          0.02900  -0.00535  -0.19353   0.00012  -0.01564
 103        5PX         0.00520   0.00149  -0.03649  -0.00163  -0.01329
 104        5PY        -0.00779  -0.00085   0.02107  -0.00260  -0.03265
 105        5PZ         0.00000   0.00000   0.00000   0.00000   0.00000
 106        6D 0        0.00101  -0.00178  -0.00101   0.00000   0.00021
 107        6D+1        0.00000   0.00000   0.00000   0.00000   0.00000
 108        6D-1        0.00000   0.00000   0.00000   0.00000   0.00000
 109        6D+2       -0.00683   0.00393   0.00921  -0.00472  -0.01797
 110        6D-2       -0.00452  -0.00684  -0.01599  -0.00273  -0.00940
 111 6   C  1S         -0.05511   0.00568   0.03331   0.00001  -0.01294
 112        2S         -0.08478   0.00853   0.05154   0.00002  -0.02005
 113        2PX        -0.03986   0.08090   0.05353  -0.06603   0.12499
 114        2PY         0.01105   0.04690   0.03080   0.11399   0.06239
 115        2PZ         0.00000   0.00000   0.00000   0.00000   0.00000
 116        3S          0.23166  -0.02317  -0.14272  -0.00004   0.06098
 117        3PX        -0.05355   0.10950   0.07216  -0.09025   0.16941
 118        3PY         0.01509   0.06349   0.04149   0.15582   0.08278
 119        3PZ         0.00000   0.00000   0.00000   0.00000   0.00000
 120        4S          0.14695  -0.03411  -0.15282   0.00003   0.06087
 121        4PX        -0.02193   0.05693   0.03067  -0.04622   0.09399
 122        4PY         0.00628   0.03299   0.01764   0.07980   0.05682
 123        4PZ         0.00000   0.00000   0.00000   0.00000   0.00000
 124        5S         -0.12854  -0.00566   0.19355   0.00028  -0.05400
 125        5PX        -0.03289   0.00140   0.03650  -0.00129   0.01687
 126        5PY        -0.01751   0.00076   0.02109   0.00231   0.00052
 127        5PZ         0.00000   0.00000   0.00000   0.00000   0.00000
 128        6D 0       -0.00447  -0.00178   0.00100   0.00001   0.00069
 129        6D+1        0.00000   0.00000   0.00000   0.00000   0.00000
 130        6D-1        0.00000   0.00000   0.00000   0.00000   0.00000
 131        6D+2       -0.00333   0.00395  -0.00919  -0.00456   0.00268
 132        6D-2       -0.00067   0.00686  -0.01600   0.00263  -0.00454
 133 7   H  1S         -0.01538  -0.06996  -0.08726  -0.00063   0.03125
 134        2S         -0.01893  -0.08751  -0.11440  -0.00087   0.04436
 135        3S         -0.00294  -0.01636  -0.04766  -0.00031   0.01721
 136        4PX         0.00482   0.00876   0.00669  -0.00382  -0.00405
 137        4PY         0.00333  -0.00505  -0.00383  -0.00677  -0.00061
 138        4PZ         0.00000   0.00000   0.00000   0.00000   0.00000
 139 8   H  1S          0.06883  -0.06981   0.08734   0.00010   0.10110
 140        2S          0.08476  -0.08734   0.11452   0.00015   0.14375
 141        3S          0.01313  -0.01636   0.04773   0.00005   0.05578
 142        4PX        -0.00897   0.00874  -0.00667  -0.00388  -0.00879
 143        4PY        -0.00706   0.00506  -0.00386   0.00669  -0.00575
 144        4PZ         0.00000   0.00000   0.00000   0.00000   0.00000
 145 9   H  1S         -0.05314  -0.06993  -0.08717   0.00057   0.07002
 146        2S         -0.06546  -0.08749  -0.11428   0.00080   0.09952
 147        3S         -0.01014  -0.01636  -0.04762   0.00027   0.03861
 148        4PX         0.00366   0.00001  -0.00000   0.00776  -0.00198
 149        4PY         0.00873   0.01011   0.00770  -0.00007  -0.00725
 150        4PZ         0.00000   0.00000   0.00000   0.00000   0.00000
 151 10  H  1S         -0.01547  -0.07000   0.08731   0.00066  -0.03136
 152        2S         -0.01906  -0.08756   0.11445   0.00092  -0.04455
 153        3S         -0.00295  -0.01639   0.04769   0.00031  -0.01729
 154        4PX        -0.00485  -0.00877   0.00668  -0.00382  -0.00408
 155        4PY        -0.00331   0.00505  -0.00385  -0.00676  -0.00058
 156        4PZ         0.00000   0.00000   0.00000   0.00000   0.00000
 157 11  H  1S          0.06883  -0.06977  -0.08737   0.00011  -0.10099
 158        2S          0.08476  -0.08730  -0.11456   0.00016  -0.14361
 159        3S          0.01313  -0.01633  -0.04774   0.00004  -0.05572
 160        4PX         0.00896  -0.00874  -0.00668  -0.00386  -0.00878
 161        4PY         0.00707  -0.00504  -0.00387   0.00671  -0.00574
 162        4PZ         0.00000   0.00000   0.00000   0.00000   0.00000
 163 12  H  1S         -0.05308  -0.06998   0.08707  -0.00051  -0.06999
 164        2S         -0.06537  -0.08755   0.11414  -0.00071  -0.09944
 165        3S         -0.01013  -0.01639   0.04757  -0.00025  -0.03858
 166        4PX        -0.00368  -0.00001   0.00002   0.00777  -0.00199
 167        4PY        -0.00871  -0.01012   0.00768  -0.00007  -0.00722
 168        4PZ         0.00000   0.00000   0.00000   0.00000   0.00000
                          16        17        18        19        20
                           O         O         O         O         O
     Eigenvalues --    -0.37324  -0.32547  -0.30102  -0.30079  -0.22556
   1 1   C  1S          0.01261   0.00000   0.00170   0.00200   0.00000
   2        2S          0.01955   0.00000   0.00273   0.00319   0.00000
   3        2PX         0.12345   0.00000   0.10722   0.02839   0.00000
   4        2PY        -0.05867   0.00000   0.04820  -0.11113   0.00000
   5        2PZ         0.00000   0.10300   0.00000   0.00000   0.01308
   6        3S         -0.05947   0.00000  -0.01007  -0.01177   0.00000
   7        3PX         0.16766   0.00000   0.14434   0.03893   0.00000
   8        3PY        -0.07723   0.00000   0.06413  -0.14939   0.00000
   9        3PZ         0.00000   0.15633   0.00000   0.00000   0.01978
  10        4S         -0.05956   0.00000   0.00675   0.00786   0.00000
  11        4PX         0.09118   0.00000   0.09500   0.02894   0.00000
  12        4PY        -0.05692   0.00000   0.03842  -0.09714   0.00000
  13        4PZ         0.00000   0.10753   0.00000   0.00000   0.01735
  14        5S          0.05215   0.00000  -0.01484  -0.01826   0.00000
  15        5PX         0.01832   0.00000   0.01161   0.01084   0.00000
  16        5PY         0.00226   0.00000  -0.00320  -0.00879   0.00000
  17        5PZ         0.00000   0.00610   0.00000   0.00000   0.00311
  18        6D 0       -0.00067   0.00000   0.00006   0.00006   0.00000
  19        6D+1        0.00000  -0.01097   0.00000   0.00000   0.01158
  20        6D-1        0.00000   0.00634   0.00000   0.00000   0.02112
  21        6D+2       -0.00421   0.00000  -0.00063   0.01942   0.00000
  22        6D-2       -0.00541   0.00000  -0.02182  -0.01376   0.00000
  23 2   C  1S          0.00971   0.00000   0.00086  -0.00247   0.00000
  24        2S          0.01504   0.00000   0.00137  -0.00396   0.00000
  25        2PX        -0.02532   0.00000  -0.11872  -0.04162   0.00000
  26        2PY        -0.10555   0.00000  -0.03474   0.09965   0.00000
  27        2PZ         0.00000   0.10304   0.00000   0.00000  -0.12979
  28        3S         -0.04577   0.00000  -0.00508   0.01461   0.00000
  29        3PX        -0.03920   0.00000  -0.15900  -0.05576   0.00000
  30        3PY        -0.14239   0.00000  -0.04695   0.13477   0.00000
  31        3PZ         0.00000   0.15639   0.00000   0.00000  -0.19634
  32        4S         -0.04572   0.00000   0.00338  -0.00988   0.00000
  33        4PX         0.00765   0.00000  -0.10057  -0.03536   0.00000
  34        4PY        -0.08309   0.00000  -0.03186   0.09153   0.00000
  35        4PZ         0.00000   0.10757   0.00000   0.00000  -0.17195
  36        5S          0.04072   0.00000  -0.00704   0.02240   0.00000
  37        5PX        -0.02477   0.00000  -0.00364  -0.00092   0.00000
  38        5PY        -0.01136   0.00000  -0.00582   0.01710   0.00000
  39        5PZ         0.00000   0.00611   0.00000   0.00000  -0.03074
  40        6D 0       -0.00052   0.00000   0.00003  -0.00008   0.00000
  41        6D+1        0.00000  -0.00002   0.00000   0.00000   0.01379
  42        6D-1        0.00000   0.01267   0.00000   0.00000  -0.00535
  43        6D+2       -0.00202   0.00000  -0.00941   0.02693   0.00000
  44        6D-2       -0.01430   0.00000  -0.01431  -0.00507   0.00000
  45 3   C  1S          0.00286   0.00000  -0.00255   0.00050   0.00000
  46        2S          0.00443   0.00000  -0.00408   0.00080   0.00000
  47        2PX         0.00736   0.00000  -0.10156  -0.04490   0.00000
  48        2PY         0.04881   0.00000  -0.03158   0.11695   0.00000
  49        2PZ         0.00000   0.10302   0.00000   0.00000   0.14285
  50        3S         -0.01347   0.00000   0.01510  -0.00294   0.00000
  51        3PX         0.00626   0.00000  -0.13717  -0.05990   0.00000
  52        3PY         0.07220   0.00000  -0.04298   0.15675   0.00000
  53        3PZ         0.00000   0.15635   0.00000   0.00000   0.21610
  54        4S         -0.01347   0.00000  -0.01035   0.00186   0.00000
  55        4PX         0.02582   0.00000  -0.09232  -0.03684   0.00000
  56        4PY         0.00381   0.00000  -0.03041   0.09980   0.00000
  57        4PZ         0.00000   0.10756   0.00000   0.00000   0.18926
  58        5S          0.01163   0.00000   0.02220  -0.00374   0.00000
  59        5PX        -0.01503   0.00000  -0.01560   0.00077   0.00000
  60        5PY         0.03269   0.00000  -0.00809   0.00514   0.00000
  61        5PZ         0.00000   0.00614   0.00000   0.00000   0.03383
  62        6D 0       -0.00015   0.00000  -0.00009   0.00001   0.00000
  63        6D+1        0.00000  -0.01098   0.00000   0.00000  -0.01026
  64        6D-1        0.00000  -0.00633   0.00000   0.00000   0.00598
  65        6D+2        0.01829   0.00000  -0.01157   0.01555   0.00000
  66        6D-2       -0.00988   0.00000  -0.02566  -0.00287   0.00000
  67 4   C  1S         -0.00974   0.00000   0.00087  -0.00249   0.00000
  68        2S         -0.01510   0.00000   0.00140  -0.00399   0.00000
  69        2PX        -0.02527   0.00000   0.11886   0.04162   0.00000
  70        2PY        -0.10542   0.00000   0.03500  -0.09966   0.00000
  71        2PZ         0.00000   0.10303   0.00000   0.00000   0.12978
  72        3S          0.04593   0.00000  -0.00516   0.01469   0.00000
  73        3PX        -0.03914   0.00000   0.15920   0.05574   0.00000
  74        3PY        -0.14222   0.00000   0.04732  -0.13477   0.00000
  75        3PZ         0.00000   0.15637   0.00000   0.00000   0.19633
  76        4S          0.04590   0.00000   0.00338  -0.00976   0.00000
  77        4PX         0.00770   0.00000   0.10072   0.03532   0.00000
  78        4PY        -0.08305   0.00000   0.03212  -0.09151   0.00000
  79        4PZ         0.00000   0.10756   0.00000   0.00000   0.17192
  80        5S         -0.04028   0.00000  -0.00754   0.02119   0.00000
  81        5PX        -0.02471   0.00000   0.00360   0.00102   0.00000
  82        5PY        -0.01142   0.00000   0.00593  -0.01689   0.00000
  83        5PZ         0.00000   0.00610   0.00000   0.00000   0.03073
  84        6D 0        0.00053   0.00000   0.00003  -0.00008   0.00000
  85        6D+1        0.00000   0.00001   0.00000   0.00000   0.01378
  86        6D-1        0.00000  -0.01267   0.00000   0.00000  -0.00535
  87        6D+2        0.00200   0.00000  -0.00941   0.02692   0.00000
  88        6D-2        0.01432   0.00000  -0.01433  -0.00500   0.00000
  89 5   C  1S         -0.01264   0.00000   0.00171   0.00199   0.00000
  90        2S         -0.01959   0.00000   0.00274   0.00319   0.00000
  91        2PX         0.12337   0.00000  -0.10743  -0.02822   0.00000
  92        2PY        -0.05876   0.00000  -0.04827   0.11110   0.00000
  93        2PZ         0.00000   0.10301   0.00000   0.00000  -0.01305
  94        3S          0.05960   0.00000  -0.01010  -0.01177   0.00000
  95        3PX         0.16754   0.00000  -0.14465  -0.03869   0.00000
  96        3PY        -0.07733   0.00000  -0.06422   0.14932   0.00000
  97        3PZ         0.00000   0.15634   0.00000   0.00000  -0.01974
  98        4S          0.05971   0.00000   0.00679   0.00783   0.00000
  99        4PX         0.09113   0.00000  -0.09520  -0.02878   0.00000
 100        4PY        -0.05699   0.00000  -0.03847   0.09702   0.00000
 101        4PZ         0.00000   0.10754   0.00000   0.00000  -0.01728
 102        5S         -0.05211   0.00000  -0.01477  -0.01703   0.00000
 103        5PX         0.01825   0.00000  -0.01158  -0.01057   0.00000
 104        5PY         0.00218   0.00000   0.00323   0.00876   0.00000
 105        5PZ         0.00000   0.00611   0.00000   0.00000  -0.00307
 106        6D 0        0.00068   0.00000   0.00006   0.00007   0.00000
 107        6D+1        0.00000   0.01097   0.00000   0.00000   0.01157
 108        6D-1        0.00000  -0.00633   0.00000   0.00000   0.02112
 109        6D+2        0.00423   0.00000  -0.00067   0.01938   0.00000
 110        6D-2        0.00541   0.00000  -0.02185  -0.01377   0.00000
 111 6   C  1S         -0.00280   0.00000  -0.00257   0.00046   0.00000
 112        2S         -0.00433   0.00000  -0.00411   0.00074   0.00000
 113        2PX         0.00746   0.00000   0.10157   0.04494   0.00000
 114        2PY         0.04894   0.00000   0.03172  -0.11693   0.00000
 115        2PZ         0.00000   0.10304   0.00000   0.00000  -0.14284
 116        3S          0.01320   0.00000   0.01517  -0.00277   0.00000
 117        3PX         0.00639   0.00000   0.13719   0.05994   0.00000
 118        3PY         0.07239   0.00000   0.04316  -0.15672   0.00000
 119        3PZ         0.00000   0.15638   0.00000   0.00000  -0.21609
 120        4S          0.01314   0.00000  -0.01029   0.00194   0.00000
 121        4PX         0.02584   0.00000   0.09235   0.03687   0.00000
 122        4PY         0.00386   0.00000   0.03052  -0.09981   0.00000
 123        4PZ         0.00000   0.10759   0.00000   0.00000  -0.18926
 124        5S         -0.01210   0.00000   0.02195  -0.00458   0.00000
 125        5PX        -0.01507   0.00000   0.01552  -0.00093   0.00000
 126        5PY         0.03269   0.00000   0.00817  -0.00523   0.00000
 127        5PZ         0.00000   0.00613   0.00000   0.00000  -0.03385
 128        6D 0        0.00015   0.00000  -0.00009   0.00002   0.00000
 129        6D+1        0.00000   0.01098   0.00000   0.00000  -0.01026
[...]
  26        2PY         0.24225
  27        2PZ         0.17708
  28        3S          0.77938
  29        3PX         0.51159
  30        3PY         0.51663
  31        3PZ         0.42365
  32        4S          0.41997
  33        4PX         0.21090
  34        4PY         0.17771
  35        4PZ         0.35751
  36        5S          0.00021
  37        5PX         0.01675
  38        5PY        -0.01854
  39        5PZ         0.02239
  40        6D 0        0.00359
  41        6D+1        0.00485
  42        6D-1        0.00828
  43        6D+2        0.01732
  44        6D-2        0.02039
  45 3   C  1S          1.10498
  46        2S          0.88240
  47        2PX         0.24397
  48        2PY         0.23705
  49        2PZ         0.17708
  50        3S          0.77939
  51        3PX         0.51916
  52        3PY         0.50906
  53        3PZ         0.42364
  54        4S          0.41997
  55        4PX         0.16114
  56        4PY         0.22748
  57        4PZ         0.35752
  58        5S          0.00017
  59        5PX        -0.03623
  60        5PY         0.03442
  61        5PZ         0.02239
  62        6D 0        0.00359
  63        6D+1        0.00999
  64        6D-1        0.00313
  65        6D+2        0.02192
  66        6D-2        0.01580
  67 4   C  1S          1.10498
  68        2S          0.88240
  69        2PX         0.23878
  70        2PY         0.24224
  71        2PZ         0.17708
  72        3S          0.77939
  73        3PX         0.51159
  74        3PY         0.51663
  75        3PZ         0.42364
  76        4S          0.41997
  77        4PX         0.21089
  78        4PY         0.17772
  79        4PZ         0.35751
  80        5S          0.00019
  81        5PX         0.01676
  82        5PY        -0.01856
  83        5PZ         0.02239
  84        6D 0        0.00359
  85        6D+1        0.00485
  86        6D-1        0.00828
  87        6D+2        0.01733
  88        6D-2        0.02039
  89 5   C  1S          1.10498
  90        2S          0.88240
  91        2PX         0.23878
  92        2PY         0.24224
  93        2PZ         0.17708
  94        3S          0.77939
  95        3PX         0.51159
  96        3PY         0.51663
  97        3PZ         0.42364
  98        4S          0.41997
  99        4PX         0.21089
 100        4PY         0.17772
 101        4PZ         0.35751
 102        5S          0.00021
 103        5PX         0.01676
 104        5PY        -0.01855
 105        5PZ         0.02239
 106        6D 0        0.00359
 107        6D+1        0.00485
 108        6D-1        0.00828
 109        6D+2        0.01733
 110        6D-2        0.02039
 111 6   C  1S          1.10498
 112        2S          0.88240
 113        2PX         0.24397
 114        2PY         0.23705
 115        2PZ         0.17708
 116        3S          0.77939
 117        3PX         0.51916
 118        3PY         0.50906
 119        3PZ         0.42364
 120        4S          0.41997
 121        4PX         0.16114
 122        4PY         0.22749
 123        4PZ         0.35752
 124        5S          0.00017
 125        5PX        -0.03623
 126        5PY         0.03441
 127        5PZ         0.02239
 128        6D 0        0.00359
 129        6D+1        0.00999
 130        6D-1        0.00313
 131        6D+2        0.02192
 132        6D-2        0.01580
 133 7   H  1S          0.28073
 134        2S          0.47846
 135        3S          0.09845
 136        4PX         0.01130
 137        4PY         0.00677
 138        4PZ         0.00625
 139 8   H  1S          0.28073
 140        2S          0.47846
 141        3S          0.09846
 142        4PX         0.00450
 143        4PY         0.01356
 144        4PZ         0.00625
 145 9   H  1S          0.28073
 146        2S          0.47846
 147        3S          0.09846
 148        4PX         0.01130
 149        4PY         0.00677
 150        4PZ         0.00625
 151 10  H  1S          0.28073
 152        2S          0.47846
 153        3S          0.09845
 154        4PX         0.01130
 155        4PY         0.00677
 156        4PZ         0.00625
 157 11  H  1S          0.28073
 158        2S          0.47846
 159        3S          0.09846
 160        4PX         0.00450
 161        4PY         0.01356
 162        4PZ         0.00625
 163 12  H  1S          0.28073
 164        2S          0.47846
 165        3S          0.09846
 166        4PX         0.01130
 167        4PY         0.00677
 168        4PZ         0.00625
          Condensed to atoms (all electrons):
               1          2          3          4          5          6
     1  C    4.791461   0.568372   0.568418  -0.048294  -0.054350  -0.048334
     2  C    0.568372   4.791454  -0.048329  -0.054352  -0.048287   0.568426
     3  C    0.568418  -0.048329   4.791370   0.568431  -0.048326  -0.054316
     4  C   -0.048294  -0.054352   0.568431   4.791428   0.568377  -0.048334
     5  C   -0.054350  -0.048287  -0.048326   0.568377   4.791446   0.568423
     6  C   -0.048334   0.568426  -0.054316  -0.048334   0.568423   4.791364
     7  H    0.374432  -0.012671  -0.012738  -0.004398   0.000558  -0.004401
     8  H   -0.012734  -0.004388   0.374453  -0.012713  -0.004393   0.000559
     9  H   -0.004396   0.000556  -0.012715   0.374436  -0.012708  -0.004394
    10  H    0.000556  -0.004397  -0.004396  -0.012706   0.374441  -0.012716
    11  H   -0.004388  -0.012732   0.000558  -0.004390  -0.012720   0.374454
    12  H   -0.012669   0.374423  -0.004402   0.000560  -0.004401  -0.012732
               7          8          9         10         11         12
     1  C    0.374432  -0.012734  -0.004396   0.000556  -0.004388  -0.012669
     2  C   -0.012671  -0.004388   0.000556  -0.004397  -0.012732   0.374423
     3  C   -0.012738   0.374453  -0.012715  -0.004396   0.000558  -0.004402
     4  C   -0.004398  -0.012713   0.374436  -0.012706  -0.004390   0.000560
     5  C    0.000558  -0.004393  -0.012708   0.374441  -0.012720  -0.004401
     6  C   -0.004401   0.000559  -0.004394  -0.012716   0.374454  -0.012732
     7  H    0.559447  -0.008857  -0.000326   0.000085  -0.000326  -0.008851
     8  H   -0.008857   0.559455  -0.008855  -0.000326   0.000085  -0.000326
     9  H   -0.000326  -0.008855   0.559456  -0.008854  -0.000326   0.000085
    10  H    0.000085  -0.000326  -0.008854   0.559448  -0.008854  -0.000326
    11  H   -0.000326   0.000085  -0.000326  -0.008854   0.559456  -0.008858
    12  H   -0.008851  -0.000326   0.000085  -0.000326  -0.008858   0.559453
 Mulliken charges:
               1
     1  C   -0.118075
     2  C   -0.118074
     3  C   -0.118007
     4  C   -0.118045
     5  C   -0.118060
     6  C   -0.117999
     7  H    0.118046
     8  H    0.118042
     9  H    0.118042
    10  H    0.118045
    11  H    0.118041
    12  H    0.118043
 Sum of Mulliken charges =  -0.00000
 Mulliken charges with hydrogens summed into heavy atoms:
               1
     1  C   -0.000029
     2  C   -0.000030
     3  C    0.000035
     4  C   -0.000003
     5  C   -0.000015
     6  C    0.000042
 Electronic spatial extent (au):  <R**2>=            465.5938
 Charge=             -0.0000 electrons
 Dipole moment (field-independent basis, Debye):
    X=             -0.0000    Y=              0.0000    Z=              0.0000  Tot=              0.0000
 Quadrupole moment (field-independent basis, Debye-Ang):
   XX=            -32.5843   YY=            -32.5831   ZZ=            -40.4495
   XY=              0.0001   XZ=              0.0000   YZ=              0.0000
 Traceless Quadrupole moment (field-independent basis, Debye-Ang):
   XX=              2.6214   YY=              2.6225   ZZ=             -5.2438
   XY=              0.0001   XZ=              0.0000   YZ=              0.0000
 Octapole moment (field-independent basis, Debye-Ang**2):
  XXX=             -0.0023  YYY=              0.0001  ZZZ=              0.0000  XYY=              0.0018
  XXY=             -0.0001  XXZ=              0.0000  XZZ=              0.0000  YZZ=             -0.0000
  YYZ=              0.0000  XYZ=              0.0000
 Hexadecapole moment (field-independent basis, Debye-Ang**3):
 XXXX=           -285.2273 YYYY=           -285.2138 ZZZZ=            -50.9423 XXXY=              0.0008
 XXXZ=              0.0000 YYYX=              0.0002 YYYZ=              0.0000 ZZZX=              0.0000
 ZZZY=              0.0000 XXYY=            -95.0685 XXZZ=            -66.7440 YYZZ=            -66.7435
 XXYZ=              0.0000 YYXZ=              0.0000 ZZXY=             -0.0001
 N-N= 2.020956084214D+02 E-N=-9.429714615393D+02  KE= 2.314243350568D+02
 Symmetry A'   KE= 2.249764569729D+02
 Symmetry A"   KE= 6.447878083902D+00
 Orbital energies and kinetic energies (alpha):
                                 1                 2
   1         O                -9.912045         15.959033
   2         O                -9.911917         15.956217
   3         O                -9.911915         15.956217
   4         O                -9.911589         15.957128
   5         O                -9.911587         15.957128
   6         O                -9.911435         15.956501
   7         O                -0.767787          1.493457
   8         O                -0.668568          1.612869
   9         O                -0.668561          1.612816
  10         O                -0.537977          1.483943
  11         O                -0.537966          1.483984
  12         O                -0.466330          0.962367
  13         O                -0.408859          1.318803
  14         O                -0.394270          1.488731
  15         O                -0.372519          1.230847
  16         O                -0.372505          1.230872
  17         O                -0.322560          0.952023
  18         O                -0.301401          1.413652
  19         O                -0.301383          1.413661
  20         O                -0.224577          1.135963
  21         O                -0.224569          1.135954
  22         V                -0.040505          1.316672
  23         V                -0.040499          1.316654
  24         V                -0.007849          0.366213
  25         V                 0.012368          0.304050
  26         V                 0.012371          0.304041
  27         V                 0.034309          0.325970
  28         V                 0.034313          0.325935
  29         V                 0.052827          0.254426
  30         V                 0.057517          0.334306
  31         V                 0.066644          0.355696
  32         V                 0.079636          0.272514
  33         V                 0.079636          0.272510
  34         V                 0.088298          0.252312
  35         V                 0.092590          1.358814
  36         V                 0.128320          0.392099
  37         V                 0.128324          0.392111
  38         V                 0.130549          0.380833
  39         V                 0.130554          0.380787
  40         V                 0.131156          0.336875
  41         V                 0.131157          0.336854
  42         V                 0.151723          0.720004
  43         V                 0.176995          0.745702
  44         V                 0.177005          0.745683
  45         V                 0.179725          0.677422
  46         V                 0.192278          0.734732
  47         V                 0.192280          0.734403
  48         V                 0.194443          0.441814
  49         V                 0.194448          0.441862
  50         V                 0.204112          1.002380
  51         V                 0.213302          0.712445
  52         V                 0.213305          0.712804
  53         V                 0.258330          0.317879
  54         V                 0.269212          0.513760
  55         V                 0.290442          1.535359
  56         V                 0.290463          1.535334
  57         V                 0.292036          1.419261
  58         V                 0.292058          1.419406
  59         V                 0.379993          1.000613
  60         V                 0.427332          1.051286
  61         V                 0.460483          2.190721
  62         V                 0.489322          1.482434
  63         V                 0.489335          1.482527
  64         V                 0.497733          1.426007
  65         V                 0.498664          2.039737
  66         V                 0.510982          1.587341
  67         V                 0.510993          1.587295
  68         V                 0.542254          1.416389
  69         V                 0.542256          1.416399
  70         V                 0.571412          1.715610
  71         V                 0.581007          1.564229
  72         V                 0.581009          1.564220
  73         V                 0.634375          1.624439
  74         V                 0.644254          2.105811
  75         V                 0.644261          2.105992
  76         V                 0.677901          2.446642
  77         V                 0.681034          1.796141
  78         V                 0.681042          1.796181
  79         V                 0.741111          2.065428
  80         V                 0.788155          2.066905
  81         V                 0.788159          2.066438
  82         V                 0.790984          1.910298
  83         V                 0.790992          1.910334
  84         V                 0.812152          2.019928
  85         V                 0.814899          1.870413
  86         V                 0.814910          1.869851
  87         V                 0.815224          2.381006
  88         V                 0.896442          1.783803
  89         V                 0.963506          1.965937
  90         V                 0.975286          1.774966
  91         V                 0.975306          1.775053
  92         V                 1.028210          1.936605
  93         V                 1.028225          1.936615
  94         V                 1.085616          2.040568
  95         V                 1.085633          2.040598
  96         V                 1.233077          2.177122
  97         V                 1.251609          2.441831
  98         V                 1.404676          2.372137
  99         V                 1.431432          2.655430
 100         V                 1.431471          2.655536
 101         V                 1.444492          2.667542
 102         V                 1.509570          2.468095
 103         V                 1.509588          2.468533
 104         V                 1.509631          2.264451
 105         V                 1.579503          2.619309
 106         V                 1.579541          2.619611
 107         V                 1.601629          2.589269
 108         V                 1.601754          2.589378
 109         V                 1.657840          2.457408
 110         V                 1.712294          2.587035
 111         V                 1.712320          2.587130
 112         V                 1.734815          2.931418
 113         V                 1.734877          2.931241
 114         V                 1.781627          2.614856
 115         V                 1.854956          3.126610
 116         V                 1.854979          3.126665
 117         V                 1.876706          3.350192
 118         V                 1.876722          3.350156
 119         V                 1.896626          3.363636
 120         V                 1.900822          3.096589
 121         V                 1.939531          3.745626
 122         V                 1.939549          3.745766
 123         V                 2.010429          2.943748
 124         V                 2.010483          2.943822
 125         V                 2.242112          3.446205
 126         V                 2.261755          3.366004
 127         V                 2.275583          4.594291
 128         V                 2.299601          4.871918
 129         V                 2.299615          4.872112
 130         V                 2.317077          3.770996
 131         V                 2.317148          3.771209
 132         V                 2.530206          4.085887
 133         V                 2.530249          4.085817
 134         V                 2.559980          6.292314
 135         V                 2.571646          3.936952
 136         V                 2.587679          4.030213
 137         V                 2.646420          3.889280
 138         V                 2.646444          3.889244
 139         V                 2.683370          3.968532
 140         V                 2.683412          3.968597
 141         V                 2.703407          6.168632
 142         V                 2.703424          6.168615
 143         V                 2.704143          4.210219
 144         V                 2.797112          6.352541
 145         V                 2.797113          6.352531
 146         V                 2.811288          4.611663
 147         V                 2.820718          4.946040
 148         V                 2.820798          4.946224
 149         V                 2.979749          6.353940
 150         V                 2.986032          7.111830
 151         V                 3.225426          7.161624
 152         V                 3.225485          7.161734
 153         V                 3.369216          6.920390
 154         V                 3.369287          6.920463
 155         V                 3.387349          6.789876
 156         V                 3.547175          5.604745
 157         V                 3.880377          6.784080
 158         V                 3.880388          6.784090
 159         V                 3.970922          7.006100
 160         V                 4.048088          7.154954
 161         V                 4.048108          7.154963
 162         V                 4.728825          7.773898
 163         V                23.282114         60.201549
 164         V                23.640928         60.334833
 165         V                23.641013         60.334881
 166         V                23.759030         60.331112
 167         V                23.759120         60.331161
 168         V                23.863965         60.342515
 Total kinetic energy from orbitals= 2.314243350568D+02
 No NMR shielding tensors so no spin-rotation constants.
 Leave Link  601 at Tue Sep 29 08:54:38 2020, MaxMem=   104857600 cpu:               0.2 elap:               0.3
 (Enter /usr/local/packages/gaussian/g16/l9999.exe)
 1\1\GINC-HEADNODE\FOpt\RBLYP\6-311+G(d,p)\C6H6\TNGUYEN38\29-Sep-2020\0
 \\#P BLYP/6-311+G(d,p) Pop=full Opt\\C6H6 single-point energy calculat
 ion\\0,1\C,-3.3696161146,1.9889819333,0.\C,-1.9727328123,1.8424698461,
 0.\C,-4.1949594765,0.852408312,0.\C,-3.6233883431,-0.4306066861,0.\C,-
 2.2264539311,-0.5771283546,0.\C,-1.4011440213,0.5594242337,0.\H,-3.813
 7892045,2.9854409099,0.\H,-5.279978085,0.9662487803,0.\H,-4.2644794978
 ,-1.313353513,0.\H,-1.7824587476,-1.5736635382,0.\H,-0.3161130324,0.44
 56755695,0.\H,-1.3314867337,2.7251025071,0.\\Version=ES64L-G16RevA.03\
 State=1-A'\HF=-232.2004303\RMSD=9.901e-09\RMSF=1.433e-05\Dipole=-0.000
 0014,-0.0000112,0.\Quadrupole=1.9497275,1.9489417,-3.8986692,-0.000186
 6,0.,0.\PG=CS [SG(C6H6)]\\@


 FROM THE ASHES OF OUR DESPAIR GROW THE FLOWERS OF TOMORROW.
 Job cpu time:       0 days  0 hours  1 minutes 39.5 seconds.
 Elapsed time:       0 days  0 hours  1 minutes 40.1 seconds.
 File lengths (MBytes):  RWF=     33 Int=      0 D2E=      0 Chk=      4 Scr=      2
 Normal termination of Gaussian 16 at Tue Sep 29 08:54:39 2020.
